s 0.166448226 _0_ RTR  --- 0 HELLO 36 [0 0 0 0] [energy 1000.000000 ei 0.000 es 0.000 et 0.000 er 0.000] ------- [0:255 -1:255 32 0] 
s 0.409537785 _1_ RTR  --- 1 HELLO 36 [0 0 0 0] [energy 1000.000000 ei 0.000 es 0.000 et 0.000 er 0.000] ------- [1:255 -1:255 32 0] 
