n -t * -s 0  -x 180.58760556973499 -y 401.886827012678 -Z 0 -z 20  -v circle -c black
n -t * -s 1  -x 11.901958617639 -y 36.218497218617003 -Z 0 -z 20  -v circle -c black
n -t * -s 2  -x 224.28278541139301 -y 20.774608253697 -Z 0 -z 20  -v circle -c black
n -t * -s 3  -x 158.840938304009 -y 139.65021638377601 -Z 0 -z 20  -v circle -c black
n -t * -s 4  -x 101.18688600590301 -y 147.99319097363301 -Z 0 -z 20  -v circle -c black
n -t * -s 5  -x 321.56082512117501 -y 472.78809683359998 -Z 0 -z 20  -v circle -c black
n -t * -s 6  -x 149.54390173433001 -y 384.35658153183198 -Z 0 -z 20  -v circle -c black
n -t * -s 7  -x 381.06614646402699 -y 78.723958958778994 -Z 0 -z 20  -v circle -c black
n -t * -s 8  -x 113.578290026963 -y 410.32058390034803 -Z 0 -z 20  -v circle -c black
n -t * -s 9  -x 258.05397714898101 -y 113.19417185167001 -Z 0 -z 20  -v circle -c black
V -t * -v 1.0a5 -a 0
W -t * -x 670 -y 670
A -t * -n 1 -p 0 -o 0x7fffffff -c 30 -a 1
A -t * -h 1 -m 1073741823 -s 0
+ -t 0.000116000 -s 9 -d -1 -p diffusion -e 58 -c 2 -a 1 -i 1258666966 -k MAC 
- -t 0.000116000 -s 9 -d -1 -p diffusion -e 58 -c 2 -a 1 -i 1258666966 -k MAC
h -t 0.000116000 -s 9 -d -1 -p diffusion -e 58 -c 2 -a 1 -i 1258666966 -k MAC
r -t 0.000580328 -s 2 -d -1 -p diffusion -e 0 -c 2 -a 1 -i 1258666966 -k MAC
r -t 0.000580342 -s 3 -d -1 -p diffusion -e 0 -c 2 -a 1 -i 1258666966 -k MAC
r -t 0.000580426 -s 7 -d -1 -p diffusion -e 0 -c 2 -a 1 -i 1258666966 -k MAC
r -t 0.000580536 -s 4 -d -1 -p diffusion -e 0 -c 2 -a 1 -i 1258666966 -k MAC
+ -t 0.000890426 -s 7 -d -1 -p diffusion -e 58 -c 2 -a 1 -i 1748911014 -k MAC 
- -t 0.000890426 -s 7 -d -1 -p diffusion -e 58 -c 2 -a 1 -i 1748911014 -k MAC
h -t 0.000890426 -s 7 -d -1 -p diffusion -e 58 -c 2 -a 1 -i 1748911014 -k MAC
r -t 0.001354852 -s 9 -d -1 -p diffusion -e 0 -c 2 -a 1 -i 1748911014 -k MAC
r -t 0.001354983 -s 2 -d -1 -p diffusion -e 0 -c 2 -a 1 -i 1748911014 -k MAC
r -t 0.001355194 -s 3 -d -1 -p diffusion -e 0 -c 2 -a 1 -i 1748911014 -k MAC
+ -t 0.001545194 -s 3 -d -1 -p diffusion -e 58 -c 2 -a 1 -i 196187483 -k MAC 
- -t 0.001545194 -s 3 -d -1 -p diffusion -e 58 -c 2 -a 1 -i 196187483 -k MAC
h -t 0.001545194 -s 3 -d -1 -p diffusion -e 58 -c 2 -a 1 -i 196187483 -k MAC
r -t 0.002009388 -s 4 -d -1 -p diffusion -e 0 -c 2 -a 1 -i 196187483 -k MAC
r -t 0.002009536 -s 9 -d -1 -p diffusion -e 0 -c 2 -a 1 -i 196187483 -k MAC
r -t 0.002009646 -s 2 -d -1 -p diffusion -e 0 -c 2 -a 1 -i 196187483 -k MAC
r -t 0.002009793 -s 1 -d -1 -p diffusion -e 0 -c 2 -a 1 -i 196187483 -k MAC
r -t 0.002009962 -s 7 -d -1 -p diffusion -e 0 -c 2 -a 1 -i 196187483 -k MAC
r -t 0.002010010 -s 6 -d -1 -p diffusion -e 0 -c 2 -a 1 -i 196187483 -k MAC
+ -t 0.002139793 -s 1 -d -1 -p diffusion -e 58 -c 2 -a 1 -i 443957945 -k MAC 
- -t 0.002139793 -s 1 -d -1 -p diffusion -e 58 -c 2 -a 1 -i 443957945 -k MAC
h -t 0.002139793 -s 1 -d -1 -p diffusion -e 58 -c 2 -a 1 -i 443957945 -k MAC
r -t 0.002604270 -s 4 -d -1 -p diffusion -e 0 -c 2 -a 1 -i 443957945 -k MAC
r -t 0.002604392 -s 3 -d -1 -p diffusion -e 0 -c 2 -a 1 -i 443957945 -k MAC
r -t 0.002604503 -s 2 -d -1 -p diffusion -e 0 -c 2 -a 1 -i 443957945 -k MAC
+ -t 0.002734503 -s 2 -d -1 -p diffusion -e 58 -c 2 -a 1 -i 383815135 -k MAC 
- -t 0.002734503 -s 2 -d -1 -p diffusion -e 58 -c 2 -a 1 -i 383815135 -k MAC
h -t 0.002734503 -s 2 -d -1 -p diffusion -e 58 -c 2 -a 1 -i 383815135 -k MAC
r -t 0.003198831 -s 9 -d -1 -p diffusion -e 0 -c 2 -a 1 -i 383815135 -k MAC
r -t 0.003198955 -s 3 -d -1 -p diffusion -e 0 -c 2 -a 1 -i 383815135 -k MAC
r -t 0.003199060 -s 7 -d -1 -p diffusion -e 0 -c 2 -a 1 -i 383815135 -k MAC
r -t 0.003199093 -s 4 -d -1 -p diffusion -e 0 -c 2 -a 1 -i 383815135 -k MAC
r -t 0.003199213 -s 1 -d -1 -p diffusion -e 0 -c 2 -a 1 -i 383815135 -k MAC
+ -t 0.003329093 -s 4 -d -1 -p diffusion -e 58 -c 2 -a 1 -i 107660667 -k MAC 
- -t 0.003329093 -s 4 -d -1 -p diffusion -e 58 -c 2 -a 1 -i 107660667 -k MAC
h -t 0.003329093 -s 4 -d -1 -p diffusion -e 58 -c 2 -a 1 -i 107660667 -k MAC
r -t 0.003793287 -s 3 -d -1 -p diffusion -e 0 -c 2 -a 1 -i 107660667 -k MAC
r -t 0.003793570 -s 1 -d -1 -p diffusion -e 0 -c 2 -a 1 -i 107660667 -k MAC
r -t 0.003793628 -s 9 -d -1 -p diffusion -e 0 -c 2 -a 1 -i 107660667 -k MAC
r -t 0.003793683 -s 2 -d -1 -p diffusion -e 0 -c 2 -a 1 -i 107660667 -k MAC
r -t 0.003793897 -s 6 -d -1 -p diffusion -e 0 -c 2 -a 1 -i 107660667 -k MAC
+ -t 0.004023897 -s 6 -d -1 -p diffusion -e 58 -c 2 -a 1 -i 904563171 -k MAC 
- -t 0.004023897 -s 6 -d -1 -p diffusion -e 58 -c 2 -a 1 -i 904563171 -k MAC
h -t 0.004023897 -s 6 -d -1 -p diffusion -e 58 -c 2 -a 1 -i 904563171 -k MAC
r -t 0.004488016 -s 0 -d -1 -p diffusion -e 0 -c 2 -a 1 -i 904563171 -k MAC
r -t 0.004488045 -s 8 -d -1 -p diffusion -e 0 -c 2 -a 1 -i 904563171 -k MAC
r -t 0.004488542 -s 5 -d -1 -p diffusion -e 0 -c 2 -a 1 -i 904563171 -k MAC
r -t 0.004488701 -s 4 -d -1 -p diffusion -e 0 -c 2 -a 1 -i 904563171 -k MAC
r -t 0.004488713 -s 3 -d -1 -p diffusion -e 0 -c 2 -a 1 -i 904563171 -k MAC
+ -t 0.004798542 -s 5 -d -1 -p diffusion -e 58 -c 2 -a 1 -i 1144390926 -k MAC 
- -t 0.004798542 -s 5 -d -1 -p diffusion -e 58 -c 2 -a 1 -i 1144390926 -k MAC
h -t 0.004798542 -s 5 -d -1 -p diffusion -e 58 -c 2 -a 1 -i 1144390926 -k MAC
r -t 0.005263068 -s 0 -d -1 -p diffusion -e 0 -c 2 -a 1 -i 1144390926 -k MAC
r -t 0.005263186 -s 6 -d -1 -p diffusion -e 0 -c 2 -a 1 -i 1144390926 -k MAC
r -t 0.005263266 -s 8 -d -1 -p diffusion -e 0 -c 2 -a 1 -i 1144390926 -k MAC
+ -t 0.005353266 -s 8 -d -1 -p diffusion -e 58 -c 2 -a 1 -i 1563457799 -k MAC 
- -t 0.005353266 -s 8 -d -1 -p diffusion -e 58 -c 2 -a 1 -i 1563457799 -k MAC
h -t 0.005353266 -s 8 -d -1 -p diffusion -e 58 -c 2 -a 1 -i 1563457799 -k MAC
r -t 0.005817413 -s 6 -d -1 -p diffusion -e 0 -c 2 -a 1 -i 1563457799 -k MAC
r -t 0.005817491 -s 0 -d -1 -p diffusion -e 0 -c 2 -a 1 -i 1563457799 -k MAC
r -t 0.005817989 -s 5 -d -1 -p diffusion -e 0 -c 2 -a 1 -i 1563457799 -k MAC
+ -t 0.006107491 -s 0 -d -1 -p diffusion -e 58 -c 2 -a 1 -i 2033272283 -k MAC 
- -t 0.006107491 -s 0 -d -1 -p diffusion -e 58 -c 2 -a 1 -i 2033272283 -k MAC
h -t 0.006107491 -s 0 -d -1 -p diffusion -e 58 -c 2 -a 1 -i 2033272283 -k MAC
r -t 0.006571610 -s 6 -d -1 -p diffusion -e 0 -c 2 -a 1 -i 2033272283 -k MAC
r -t 0.006571716 -s 8 -d -1 -p diffusion -e 0 -c 2 -a 1 -i 2033272283 -k MAC
r -t 0.006572017 -s 5 -d -1 -p diffusion -e 0 -c 2 -a 1 -i 2033272283 -k MAC
+ -t 1.005697194 -s 3 -d -1 -p diffusion -e 58 -c 2 -a 1 -i 196187485 -k MAC 
- -t 1.005697194 -s 3 -d -1 -p diffusion -e 58 -c 2 -a 1 -i 196187485 -k MAC
h -t 1.005697194 -s 3 -d -1 -p diffusion -e 58 -c 2 -a 1 -i 196187485 -k MAC
r -t 1.006161388 -s 4 -d -1 -p diffusion -e 0 -c 2 -a 1 -i 196187485 -k MAC
r -t 1.006161536 -s 9 -d -1 -p diffusion -e 0 -c 2 -a 1 -i 196187485 -k MAC
r -t 1.006161646 -s 2 -d -1 -p diffusion -e 0 -c 2 -a 1 -i 196187485 -k MAC
r -t 1.006161793 -s 1 -d -1 -p diffusion -e 0 -c 2 -a 1 -i 196187485 -k MAC
r -t 1.006161962 -s 7 -d -1 -p diffusion -e 0 -c 2 -a 1 -i 196187485 -k MAC
r -t 1.006162010 -s 6 -d -1 -p diffusion -e 0 -c 2 -a 1 -i 196187485 -k MAC
+ -t 1.019420831 -s 9 -d -1 -p diffusion -e 58 -c 2 -a 1 -i 1258666969 -k MAC 
- -t 1.019420831 -s 9 -d -1 -p diffusion -e 58 -c 2 -a 1 -i 1258666969 -k MAC
h -t 1.019420831 -s 9 -d -1 -p diffusion -e 58 -c 2 -a 1 -i 1258666969 -k MAC
r -t 1.019885159 -s 2 -d -1 -p diffusion -e 0 -c 2 -a 1 -i 1258666969 -k MAC
r -t 1.019885173 -s 3 -d -1 -p diffusion -e 0 -c 2 -a 1 -i 1258666969 -k MAC
r -t 1.019885257 -s 7 -d -1 -p diffusion -e 0 -c 2 -a 1 -i 1258666969 -k MAC
r -t 1.019885366 -s 4 -d -1 -p diffusion -e 0 -c 2 -a 1 -i 1258666969 -k MAC
+ -t 1.034271962 -s 7 -d -1 -p diffusion -e 58 -c 2 -a 1 -i 1748911016 -k MAC 
- -t 1.034271962 -s 7 -d -1 -p diffusion -e 58 -c 2 -a 1 -i 1748911016 -k MAC
h -t 1.034271962 -s 7 -d -1 -p diffusion -e 58 -c 2 -a 1 -i 1748911016 -k MAC
r -t 1.034736388 -s 9 -d -1 -p diffusion -e 0 -c 2 -a 1 -i 1748911016 -k MAC
r -t 1.034736519 -s 2 -d -1 -p diffusion -e 0 -c 2 -a 1 -i 1748911016 -k MAC
r -t 1.034736730 -s 3 -d -1 -p diffusion -e 0 -c 2 -a 1 -i 1748911016 -k MAC
+ -t 1.045965266 -s 8 -d -1 -p diffusion -e 58 -c 2 -a 1 -i 1563457801 -k MAC 
- -t 1.045965266 -s 8 -d -1 -p diffusion -e 58 -c 2 -a 1 -i 1563457801 -k MAC
h -t 1.045965266 -s 8 -d -1 -p diffusion -e 58 -c 2 -a 1 -i 1563457801 -k MAC
r -t 1.046429413 -s 6 -d -1 -p diffusion -e 0 -c 2 -a 1 -i 1563457801 -k MAC
r -t 1.046429491 -s 0 -d -1 -p diffusion -e 0 -c 2 -a 1 -i 1563457801 -k MAC
r -t 1.046429989 -s 5 -d -1 -p diffusion -e 0 -c 2 -a 1 -i 1563457801 -k MAC
+ -t 1.085222328 -s 2 -d -1 -p diffusion -e 58 -c 2 -a 1 -i 383815136 -k MAC 
- -t 1.085222328 -s 2 -d -1 -p diffusion -e 58 -c 2 -a 1 -i 383815136 -k MAC
h -t 1.085222328 -s 2 -d -1 -p diffusion -e 58 -c 2 -a 1 -i 383815136 -k MAC
r -t 1.085686656 -s 9 -d -1 -p diffusion -e 0 -c 2 -a 1 -i 383815136 -k MAC
r -t 1.085686780 -s 3 -d -1 -p diffusion -e 0 -c 2 -a 1 -i 383815136 -k MAC
r -t 1.085686885 -s 7 -d -1 -p diffusion -e 0 -c 2 -a 1 -i 383815136 -k MAC
r -t 1.085686918 -s 4 -d -1 -p diffusion -e 0 -c 2 -a 1 -i 383815136 -k MAC
r -t 1.085687038 -s 1 -d -1 -p diffusion -e 0 -c 2 -a 1 -i 383815136 -k MAC
+ -t 1.123341213 -s 1 -d -1 -p diffusion -e 58 -c 2 -a 1 -i 443957947 -k MAC 
- -t 1.123341213 -s 1 -d -1 -p diffusion -e 58 -c 2 -a 1 -i 443957947 -k MAC
h -t 1.123341213 -s 1 -d -1 -p diffusion -e 58 -c 2 -a 1 -i 443957947 -k MAC
r -t 1.123805689 -s 4 -d -1 -p diffusion -e 0 -c 2 -a 1 -i 443957947 -k MAC
r -t 1.123805811 -s 3 -d -1 -p diffusion -e 0 -c 2 -a 1 -i 443957947 -k MAC
r -t 1.123805922 -s 2 -d -1 -p diffusion -e 0 -c 2 -a 1 -i 443957947 -k MAC
+ -t 1.163950701 -s 4 -d -1 -p diffusion -e 58 -c 2 -a 1 -i 107660672 -k MAC 
- -t 1.163950701 -s 4 -d -1 -p diffusion -e 58 -c 2 -a 1 -i 107660672 -k MAC
h -t 1.163950701 -s 4 -d -1 -p diffusion -e 58 -c 2 -a 1 -i 107660672 -k MAC
r -t 1.164414895 -s 3 -d -1 -p diffusion -e 0 -c 2 -a 1 -i 107660672 -k MAC
r -t 1.164415178 -s 1 -d -1 -p diffusion -e 0 -c 2 -a 1 -i 107660672 -k MAC
r -t 1.164415237 -s 9 -d -1 -p diffusion -e 0 -c 2 -a 1 -i 107660672 -k MAC
r -t 1.164415291 -s 2 -d -1 -p diffusion -e 0 -c 2 -a 1 -i 107660672 -k MAC
r -t 1.164415505 -s 6 -d -1 -p diffusion -e 0 -c 2 -a 1 -i 107660672 -k MAC
+ -t 1.174191793 -s 1 -d -1 -p diffusion -e 58 -c 2 -a 1 -i 443957946 -k MAC 
- -t 1.174191793 -s 1 -d -1 -p diffusion -e 58 -c 2 -a 1 -i 443957946 -k MAC
h -t 1.174191793 -s 1 -d -1 -p diffusion -e 58 -c 2 -a 1 -i 443957946 -k MAC
r -t 1.174656270 -s 4 -d -1 -p diffusion -e 0 -c 2 -a 1 -i 443957946 -k MAC
r -t 1.174656392 -s 3 -d -1 -p diffusion -e 0 -c 2 -a 1 -i 443957946 -k MAC
r -t 1.174656503 -s 2 -d -1 -p diffusion -e 0 -c 2 -a 1 -i 443957946 -k MAC
+ -t 1.182665068 -s 0 -d -1 -p diffusion -e 58 -c 2 -a 1 -i 2033272285 -k MAC 
- -t 1.182665068 -s 0 -d -1 -p diffusion -e 58 -c 2 -a 1 -i 2033272285 -k MAC
h -t 1.182665068 -s 0 -d -1 -p diffusion -e 58 -c 2 -a 1 -i 2033272285 -k MAC
r -t 1.183129187 -s 6 -d -1 -p diffusion -e 0 -c 2 -a 1 -i 2033272285 -k MAC
r -t 1.183129293 -s 8 -d -1 -p diffusion -e 0 -c 2 -a 1 -i 2033272285 -k MAC
r -t 1.183129594 -s 5 -d -1 -p diffusion -e 0 -c 2 -a 1 -i 2033272285 -k MAC
+ -t 1.219215287 -s 3 -d -1 -p diffusion -e 58 -c 2 -a 1 -i 196187488 -k MAC 
- -t 1.219215287 -s 3 -d -1 -p diffusion -e 58 -c 2 -a 1 -i 196187488 -k MAC
h -t 1.219215287 -s 3 -d -1 -p diffusion -e 58 -c 2 -a 1 -i 196187488 -k MAC
r -t 1.219679481 -s 4 -d -1 -p diffusion -e 0 -c 2 -a 1 -i 196187488 -k MAC
r -t 1.219679629 -s 9 -d -1 -p diffusion -e 0 -c 2 -a 1 -i 196187488 -k MAC
r -t 1.219679739 -s 2 -d -1 -p diffusion -e 0 -c 2 -a 1 -i 196187488 -k MAC
r -t 1.219679886 -s 1 -d -1 -p diffusion -e 0 -c 2 -a 1 -i 196187488 -k MAC
r -t 1.219680055 -s 7 -d -1 -p diffusion -e 0 -c 2 -a 1 -i 196187488 -k MAC
r -t 1.219680103 -s 6 -d -1 -p diffusion -e 0 -c 2 -a 1 -i 196187488 -k MAC
+ -t 1.232959491 -s 0 -d -1 -p diffusion -e 58 -c 2 -a 1 -i 2033272286 -k MAC 
- -t 1.232959491 -s 0 -d -1 -p diffusion -e 58 -c 2 -a 1 -i 2033272286 -k MAC
h -t 1.232959491 -s 0 -d -1 -p diffusion -e 58 -c 2 -a 1 -i 2033272286 -k MAC
r -t 1.233423610 -s 6 -d -1 -p diffusion -e 0 -c 2 -a 1 -i 2033272286 -k MAC
r -t 1.233423716 -s 8 -d -1 -p diffusion -e 0 -c 2 -a 1 -i 2033272286 -k MAC
r -t 1.233424017 -s 5 -d -1 -p diffusion -e 0 -c 2 -a 1 -i 2033272286 -k MAC
+ -t 1.241090713 -s 3 -d -1 -p diffusion -e 58 -c 2 -a 1 -i 196187489 -k MAC 
- -t 1.241090713 -s 3 -d -1 -p diffusion -e 58 -c 2 -a 1 -i 196187489 -k MAC
h -t 1.241090713 -s 3 -d -1 -p diffusion -e 58 -c 2 -a 1 -i 196187489 -k MAC
r -t 1.241554907 -s 4 -d -1 -p diffusion -e 0 -c 2 -a 1 -i 196187489 -k MAC
r -t 1.241555056 -s 9 -d -1 -p diffusion -e 0 -c 2 -a 1 -i 196187489 -k MAC
r -t 1.241555166 -s 2 -d -1 -p diffusion -e 0 -c 2 -a 1 -i 196187489 -k MAC
r -t 1.241555312 -s 1 -d -1 -p diffusion -e 0 -c 2 -a 1 -i 196187489 -k MAC
r -t 1.241555481 -s 7 -d -1 -p diffusion -e 0 -c 2 -a 1 -i 196187489 -k MAC
r -t 1.241555530 -s 6 -d -1 -p diffusion -e 0 -c 2 -a 1 -i 196187489 -k MAC
+ -t 1.307056983 -s 2 -d -1 -p diffusion -e 58 -c 2 -a 1 -i 383815137 -k MAC 
- -t 1.307056983 -s 2 -d -1 -p diffusion -e 58 -c 2 -a 1 -i 383815137 -k MAC
h -t 1.307056983 -s 2 -d -1 -p diffusion -e 58 -c 2 -a 1 -i 383815137 -k MAC
r -t 1.307521311 -s 9 -d -1 -p diffusion -e 0 -c 2 -a 1 -i 383815137 -k MAC
r -t 1.307521435 -s 3 -d -1 -p diffusion -e 0 -c 2 -a 1 -i 383815137 -k MAC
r -t 1.307521540 -s 7 -d -1 -p diffusion -e 0 -c 2 -a 1 -i 383815137 -k MAC
r -t 1.307521573 -s 4 -d -1 -p diffusion -e 0 -c 2 -a 1 -i 383815137 -k MAC
r -t 1.307521693 -s 1 -d -1 -p diffusion -e 0 -c 2 -a 1 -i 383815137 -k MAC
+ -t 1.334242342 -s 3 -d -1 -p diffusion -e 58 -c 2 -a 1 -i 196187484 -k MAC 
- -t 1.334242342 -s 3 -d -1 -p diffusion -e 58 -c 2 -a 1 -i 196187484 -k MAC
h -t 1.334242342 -s 3 -d -1 -p diffusion -e 58 -c 2 -a 1 -i 196187484 -k MAC
r -t 1.334706536 -s 4 -d -1 -p diffusion -e 0 -c 2 -a 1 -i 196187484 -k MAC
r -t 1.334706685 -s 9 -d -1 -p diffusion -e 0 -c 2 -a 1 -i 196187484 -k MAC
r -t 1.334706795 -s 2 -d -1 -p diffusion -e 0 -c 2 -a 1 -i 196187484 -k MAC
r -t 1.334706941 -s 1 -d -1 -p diffusion -e 0 -c 2 -a 1 -i 196187484 -k MAC
r -t 1.334707110 -s 7 -d -1 -p diffusion -e 0 -c 2 -a 1 -i 196187484 -k MAC
r -t 1.334707159 -s 6 -d -1 -p diffusion -e 0 -c 2 -a 1 -i 196187484 -k MAC
+ -t 1.335681093 -s 4 -d -1 -p diffusion -e 58 -c 2 -a 1 -i 107660671 -k MAC 
- -t 1.335681093 -s 4 -d -1 -p diffusion -e 58 -c 2 -a 1 -i 107660671 -k MAC
h -t 1.335681093 -s 4 -d -1 -p diffusion -e 58 -c 2 -a 1 -i 107660671 -k MAC
r -t 1.336145287 -s 3 -d -1 -p diffusion -e 0 -c 2 -a 1 -i 107660671 -k MAC
r -t 1.336145570 -s 1 -d -1 -p diffusion -e 0 -c 2 -a 1 -i 107660671 -k MAC
r -t 1.336145628 -s 9 -d -1 -p diffusion -e 0 -c 2 -a 1 -i 107660671 -k MAC
r -t 1.336145683 -s 2 -d -1 -p diffusion -e 0 -c 2 -a 1 -i 107660671 -k MAC
r -t 1.336145897 -s 6 -d -1 -p diffusion -e 0 -c 2 -a 1 -i 107660671 -k MAC
+ -t 1.346973610 -s 6 -d -1 -p diffusion -e 58 -c 2 -a 1 -i 904563176 -k MAC 
- -t 1.346973610 -s 6 -d -1 -p diffusion -e 58 -c 2 -a 1 -i 904563176 -k MAC
h -t 1.346973610 -s 6 -d -1 -p diffusion -e 58 -c 2 -a 1 -i 904563176 -k MAC
r -t 1.347437728 -s 0 -d -1 -p diffusion -e 0 -c 2 -a 1 -i 904563176 -k MAC
r -t 1.347437757 -s 8 -d -1 -p diffusion -e 0 -c 2 -a 1 -i 904563176 -k MAC
r -t 1.347438254 -s 5 -d -1 -p diffusion -e 0 -c 2 -a 1 -i 904563176 -k MAC
r -t 1.347438414 -s 4 -d -1 -p diffusion -e 0 -c 2 -a 1 -i 904563176 -k MAC
r -t 1.347438426 -s 3 -d -1 -p diffusion -e 0 -c 2 -a 1 -i 904563176 -k MAC
+ -t 1.367576852 -s 9 -d -1 -p diffusion -e 58 -c 2 -a 1 -i 1258666967 -k MAC 
- -t 1.367576852 -s 9 -d -1 -p diffusion -e 58 -c 2 -a 1 -i 1258666967 -k MAC
h -t 1.367576852 -s 9 -d -1 -p diffusion -e 58 -c 2 -a 1 -i 1258666967 -k MAC
r -t 1.368041180 -s 2 -d -1 -p diffusion -e 0 -c 2 -a 1 -i 1258666967 -k MAC
r -t 1.368041194 -s 3 -d -1 -p diffusion -e 0 -c 2 -a 1 -i 1258666967 -k MAC
r -t 1.368041278 -s 7 -d -1 -p diffusion -e 0 -c 2 -a 1 -i 1258666967 -k MAC
r -t 1.368041387 -s 4 -d -1 -p diffusion -e 0 -c 2 -a 1 -i 1258666967 -k MAC
+ -t 1.411915683 -s 2 -d -1 -p diffusion -e 58 -c 2 -a 1 -i 383815140 -k MAC 
- -t 1.411915683 -s 2 -d -1 -p diffusion -e 58 -c 2 -a 1 -i 383815140 -k MAC
h -t 1.411915683 -s 2 -d -1 -p diffusion -e 58 -c 2 -a 1 -i 383815140 -k MAC
r -t 1.412380011 -s 9 -d -1 -p diffusion -e 0 -c 2 -a 1 -i 383815140 -k MAC
r -t 1.412380135 -s 3 -d -1 -p diffusion -e 0 -c 2 -a 1 -i 383815140 -k MAC
r -t 1.412380240 -s 7 -d -1 -p diffusion -e 0 -c 2 -a 1 -i 383815140 -k MAC
r -t 1.412380273 -s 4 -d -1 -p diffusion -e 0 -c 2 -a 1 -i 383815140 -k MAC
r -t 1.412380393 -s 1 -d -1 -p diffusion -e 0 -c 2 -a 1 -i 383815140 -k MAC
+ -t 1.426975628 -s 9 -d -1 -p diffusion -e 58 -c 2 -a 1 -i 1258666970 -k MAC 
- -t 1.426975628 -s 9 -d -1 -p diffusion -e 58 -c 2 -a 1 -i 1258666970 -k MAC
h -t 1.426975628 -s 9 -d -1 -p diffusion -e 58 -c 2 -a 1 -i 1258666970 -k MAC
r -t 1.427439956 -s 2 -d -1 -p diffusion -e 0 -c 2 -a 1 -i 1258666970 -k MAC
r -t 1.427439971 -s 3 -d -1 -p diffusion -e 0 -c 2 -a 1 -i 1258666970 -k MAC
r -t 1.427440054 -s 7 -d -1 -p diffusion -e 0 -c 2 -a 1 -i 1258666970 -k MAC
r -t 1.427440164 -s 4 -d -1 -p diffusion -e 0 -c 2 -a 1 -i 1258666970 -k MAC
+ -t 1.435355570 -s 1 -d -1 -p diffusion -e 58 -c 2 -a 1 -i 443957948 -k MAC 
- -t 1.435355570 -s 1 -d -1 -p diffusion -e 58 -c 2 -a 1 -i 443957948 -k MAC
h -t 1.435355570 -s 1 -d -1 -p diffusion -e 58 -c 2 -a 1 -i 443957948 -k MAC
r -t 1.435820046 -s 4 -d -1 -p diffusion -e 0 -c 2 -a 1 -i 443957948 -k MAC
r -t 1.435820169 -s 3 -d -1 -p diffusion -e 0 -c 2 -a 1 -i 443957948 -k MAC
r -t 1.435820279 -s 2 -d -1 -p diffusion -e 0 -c 2 -a 1 -i 443957948 -k MAC
+ -t 1.441461060 -s 7 -d -1 -p diffusion -e 58 -c 2 -a 1 -i 1748911017 -k MAC 
- -t 1.441461060 -s 7 -d -1 -p diffusion -e 58 -c 2 -a 1 -i 1748911017 -k MAC
h -t 1.441461060 -s 7 -d -1 -p diffusion -e 58 -c 2 -a 1 -i 1748911017 -k MAC
r -t 1.441925486 -s 9 -d -1 -p diffusion -e 0 -c 2 -a 1 -i 1748911017 -k MAC
r -t 1.441925617 -s 2 -d -1 -p diffusion -e 0 -c 2 -a 1 -i 1748911017 -k MAC
r -t 1.441925828 -s 3 -d -1 -p diffusion -e 0 -c 2 -a 1 -i 1748911017 -k MAC
+ -t 1.443400955 -s 3 -d -1 -p diffusion -e 58 -c 2 -a 1 -i 196187487 -k MAC 
- -t 1.443400955 -s 3 -d -1 -p diffusion -e 58 -c 2 -a 1 -i 196187487 -k MAC
h -t 1.443400955 -s 3 -d -1 -p diffusion -e 58 -c 2 -a 1 -i 196187487 -k MAC
r -t 1.443865149 -s 4 -d -1 -p diffusion -e 0 -c 2 -a 1 -i 196187487 -k MAC
r -t 1.443865297 -s 9 -d -1 -p diffusion -e 0 -c 2 -a 1 -i 196187487 -k MAC
r -t 1.443865407 -s 2 -d -1 -p diffusion -e 0 -c 2 -a 1 -i 196187487 -k MAC
r -t 1.443865554 -s 1 -d -1 -p diffusion -e 0 -c 2 -a 1 -i 196187487 -k MAC
r -t 1.443865723 -s 7 -d -1 -p diffusion -e 0 -c 2 -a 1 -i 196187487 -k MAC
r -t 1.443865771 -s 6 -d -1 -p diffusion -e 0 -c 2 -a 1 -i 196187487 -k MAC
+ -t 1.455226503 -s 2 -d -1 -p diffusion -e 58 -c 2 -a 1 -i 383815139 -k MAC 
- -t 1.455226503 -s 2 -d -1 -p diffusion -e 58 -c 2 -a 1 -i 383815139 -k MAC
h -t 1.455226503 -s 2 -d -1 -p diffusion -e 58 -c 2 -a 1 -i 383815139 -k MAC
r -t 1.455690831 -s 9 -d -1 -p diffusion -e 0 -c 2 -a 1 -i 383815139 -k MAC
r -t 1.455690955 -s 3 -d -1 -p diffusion -e 0 -c 2 -a 1 -i 383815139 -k MAC
r -t 1.455691060 -s 7 -d -1 -p diffusion -e 0 -c 2 -a 1 -i 383815139 -k MAC
r -t 1.455691093 -s 4 -d -1 -p diffusion -e 0 -c 2 -a 1 -i 383815139 -k MAC
r -t 1.455691213 -s 1 -d -1 -p diffusion -e 0 -c 2 -a 1 -i 383815139 -k MAC
+ -t 1.522766392 -s 3 -d -1 -p diffusion -e 58 -c 2 -a 1 -i 196187486 -k MAC 
- -t 1.522766392 -s 3 -d -1 -p diffusion -e 58 -c 2 -a 1 -i 196187486 -k MAC
h -t 1.522766392 -s 3 -d -1 -p diffusion -e 58 -c 2 -a 1 -i 196187486 -k MAC
r -t 1.523230586 -s 4 -d -1 -p diffusion -e 0 -c 2 -a 1 -i 196187486 -k MAC
r -t 1.523230734 -s 9 -d -1 -p diffusion -e 0 -c 2 -a 1 -i 196187486 -k MAC
r -t 1.523230844 -s 2 -d -1 -p diffusion -e 0 -c 2 -a 1 -i 196187486 -k MAC
r -t 1.523230991 -s 1 -d -1 -p diffusion -e 0 -c 2 -a 1 -i 196187486 -k MAC
r -t 1.523231160 -s 7 -d -1 -p diffusion -e 0 -c 2 -a 1 -i 196187486 -k MAC
r -t 1.523231208 -s 6 -d -1 -p diffusion -e 0 -c 2 -a 1 -i 196187486 -k MAC
+ -t 1.552402000 -s 7 -d -1 -p diffusion -e 58 -c 2 -a 1 -i 23210735 -k MAC 
- -t 1.552402000 -s 7 -d -1 -p diffusion -e 58 -c 2 -a 1 -i 23210735 -k MAC
h -t 1.552402000 -s 7 -d -1 -p diffusion -e 58 -c 2 -a 1 -i 23210735 -k MAC
r -t 1.552866426 -s 9 -d -1 -p diffusion -e 0 -c 2 -a 1 -i 23210735 -k MAC
r -t 1.552866557 -s 2 -d -1 -p diffusion -e 0 -c 2 -a 1 -i 23210735 -k MAC
r -t 1.552866768 -s 3 -d -1 -p diffusion -e 0 -c 2 -a 1 -i 23210735 -k MAC
+ -t 1.626950045 -s 8 -d -1 -p diffusion -e 58 -c 2 -a 1 -i 1563457800 -k MAC 
- -t 1.626950045 -s 8 -d -1 -p diffusion -e 58 -c 2 -a 1 -i 1563457800 -k MAC
h -t 1.626950045 -s 8 -d -1 -p diffusion -e 58 -c 2 -a 1 -i 1563457800 -k MAC
r -t 1.627414193 -s 6 -d -1 -p diffusion -e 0 -c 2 -a 1 -i 1563457800 -k MAC
r -t 1.627414270 -s 0 -d -1 -p diffusion -e 0 -c 2 -a 1 -i 1563457800 -k MAC
r -t 1.627414769 -s 5 -d -1 -p diffusion -e 0 -c 2 -a 1 -i 1563457800 -k MAC
+ -t 1.629312426 -s 9 -d -1 -p diffusion -e 58 -c 2 -a 1 -i 23210735 -k MAC 
- -t 1.629312426 -s 9 -d -1 -p diffusion -e 58 -c 2 -a 1 -i 23210735 -k MAC
h -t 1.629312426 -s 9 -d -1 -p diffusion -e 58 -c 2 -a 1 -i 23210735 -k MAC
r -t 1.629776754 -s 2 -d -1 -p diffusion -e 0 -c 2 -a 1 -i 23210735 -k MAC
r -t 1.629776768 -s 3 -d -1 -p diffusion -e 0 -c 2 -a 1 -i 23210735 -k MAC
r -t 1.629776852 -s 7 -d -1 -p diffusion -e 0 -c 2 -a 1 -i 23210735 -k MAC
r -t 1.629776961 -s 4 -d -1 -p diffusion -e 0 -c 2 -a 1 -i 23210735 -k MAC
+ -t 1.644034017 -s 5 -d -1 -p diffusion -e 58 -c 2 -a 1 -i 1144390929 -k MAC 
- -t 1.644034017 -s 5 -d -1 -p diffusion -e 58 -c 2 -a 1 -i 1144390929 -k MAC
h -t 1.644034017 -s 5 -d -1 -p diffusion -e 58 -c 2 -a 1 -i 1144390929 -k MAC
r -t 1.644498543 -s 0 -d -1 -p diffusion -e 0 -c 2 -a 1 -i 1144390929 -k MAC
r -t 1.644498661 -s 6 -d -1 -p diffusion -e 0 -c 2 -a 1 -i 1144390929 -k MAC
r -t 1.644498741 -s 8 -d -1 -p diffusion -e 0 -c 2 -a 1 -i 1144390929 -k MAC
+ -t 1.650432768 -s 3 -d -1 -p diffusion -e 58 -c 2 -a 1 -i 23210735 -k MAC 
- -t 1.650432768 -s 3 -d -1 -p diffusion -e 58 -c 2 -a 1 -i 23210735 -k MAC
h -t 1.650432768 -s 3 -d -1 -p diffusion -e 58 -c 2 -a 1 -i 23210735 -k MAC
r -t 1.650896962 -s 4 -d -1 -p diffusion -e 0 -c 2 -a 1 -i 23210735 -k MAC
r -t 1.650897110 -s 9 -d -1 -p diffusion -e 0 -c 2 -a 1 -i 23210735 -k MAC
r -t 1.650897220 -s 2 -d -1 -p diffusion -e 0 -c 2 -a 1 -i 23210735 -k MAC
r -t 1.650897367 -s 1 -d -1 -p diffusion -e 0 -c 2 -a 1 -i 23210735 -k MAC
r -t 1.650897536 -s 7 -d -1 -p diffusion -e 0 -c 2 -a 1 -i 23210735 -k MAC
r -t 1.650897584 -s 6 -d -1 -p diffusion -e 0 -c 2 -a 1 -i 23210735 -k MAC
+ -t 1.663212557 -s 2 -d -1 -p diffusion -e 58 -c 2 -a 1 -i 23210735 -k MAC 
- -t 1.663212557 -s 2 -d -1 -p diffusion -e 58 -c 2 -a 1 -i 23210735 -k MAC
h -t 1.663212557 -s 2 -d -1 -p diffusion -e 58 -c 2 -a 1 -i 23210735 -k MAC
r -t 1.663676885 -s 9 -d -1 -p diffusion -e 0 -c 2 -a 1 -i 23210735 -k MAC
r -t 1.663677009 -s 3 -d -1 -p diffusion -e 0 -c 2 -a 1 -i 23210735 -k MAC
r -t 1.663677114 -s 7 -d -1 -p diffusion -e 0 -c 2 -a 1 -i 23210735 -k MAC
r -t 1.663677147 -s 4 -d -1 -p diffusion -e 0 -c 2 -a 1 -i 23210735 -k MAC
r -t 1.663677267 -s 1 -d -1 -p diffusion -e 0 -c 2 -a 1 -i 23210735 -k MAC
+ -t 1.696082426 -s 7 -d -1 -p diffusion -e 58 -c 2 -a 1 -i 1748911015 -k MAC 
- -t 1.696082426 -s 7 -d -1 -p diffusion -e 58 -c 2 -a 1 -i 1748911015 -k MAC
h -t 1.696082426 -s 7 -d -1 -p diffusion -e 58 -c 2 -a 1 -i 1748911015 -k MAC
r -t 1.696546852 -s 9 -d -1 -p diffusion -e 0 -c 2 -a 1 -i 1748911015 -k MAC
r -t 1.696546983 -s 2 -d -1 -p diffusion -e 0 -c 2 -a 1 -i 1748911015 -k MAC
r -t 1.696547194 -s 3 -d -1 -p diffusion -e 0 -c 2 -a 1 -i 1748911015 -k MAC
+ -t 1.711939413 -s 6 -d -1 -p diffusion -e 58 -c 2 -a 1 -i 904563175 -k MAC 
- -t 1.711939413 -s 6 -d -1 -p diffusion -e 58 -c 2 -a 1 -i 904563175 -k MAC
h -t 1.711939413 -s 6 -d -1 -p diffusion -e 58 -c 2 -a 1 -i 904563175 -k MAC
r -t 1.712403532 -s 0 -d -1 -p diffusion -e 0 -c 2 -a 1 -i 904563175 -k MAC
r -t 1.712403561 -s 8 -d -1 -p diffusion -e 0 -c 2 -a 1 -i 904563175 -k MAC
r -t 1.712404058 -s 5 -d -1 -p diffusion -e 0 -c 2 -a 1 -i 904563175 -k MAC
r -t 1.712404218 -s 4 -d -1 -p diffusion -e 0 -c 2 -a 1 -i 904563175 -k MAC
r -t 1.712404230 -s 3 -d -1 -p diffusion -e 0 -c 2 -a 1 -i 904563175 -k MAC
+ -t 1.719262961 -s 4 -d -1 -p diffusion -e 58 -c 2 -a 1 -i 23210735 -k MAC 
- -t 1.719262961 -s 4 -d -1 -p diffusion -e 58 -c 2 -a 1 -i 23210735 -k MAC
h -t 1.719262961 -s 4 -d -1 -p diffusion -e 58 -c 2 -a 1 -i 23210735 -k MAC
r -t 1.719727156 -s 3 -d -1 -p diffusion -e 0 -c 2 -a 1 -i 23210735 -k MAC
r -t 1.719727438 -s 1 -d -1 -p diffusion -e 0 -c 2 -a 1 -i 23210735 -k MAC
r -t 1.719727497 -s 9 -d -1 -p diffusion -e 0 -c 2 -a 1 -i 23210735 -k MAC
r -t 1.719727552 -s 2 -d -1 -p diffusion -e 0 -c 2 -a 1 -i 23210735 -k MAC
r -t 1.719727766 -s 6 -d -1 -p diffusion -e 0 -c 2 -a 1 -i 23210735 -k MAC
+ -t 1.728603367 -s 1 -d -1 -p diffusion -e 58 -c 2 -a 1 -i 23210735 -k MAC 
- -t 1.728603367 -s 1 -d -1 -p diffusion -e 58 -c 2 -a 1 -i 23210735 -k MAC
h -t 1.728603367 -s 1 -d -1 -p diffusion -e 58 -c 2 -a 1 -i 23210735 -k MAC
r -t 1.729067844 -s 4 -d -1 -p diffusion -e 0 -c 2 -a 1 -i 23210735 -k MAC
r -t 1.729067966 -s 3 -d -1 -p diffusion -e 0 -c 2 -a 1 -i 23210735 -k MAC
r -t 1.729068077 -s 2 -d -1 -p diffusion -e 0 -c 2 -a 1 -i 23210735 -k MAC
+ -t 1.739055897 -s 6 -d -1 -p diffusion -e 58 -c 2 -a 1 -i 904563173 -k MAC 
- -t 1.739055897 -s 6 -d -1 -p diffusion -e 58 -c 2 -a 1 -i 904563173 -k MAC
h -t 1.739055897 -s 6 -d -1 -p diffusion -e 58 -c 2 -a 1 -i 904563173 -k MAC
r -t 1.739520016 -s 0 -d -1 -p diffusion -e 0 -c 2 -a 1 -i 904563173 -k MAC
r -t 1.739520045 -s 8 -d -1 -p diffusion -e 0 -c 2 -a 1 -i 904563173 -k MAC
r -t 1.739520542 -s 5 -d -1 -p diffusion -e 0 -c 2 -a 1 -i 904563173 -k MAC
r -t 1.739520701 -s 4 -d -1 -p diffusion -e 0 -c 2 -a 1 -i 904563173 -k MAC
r -t 1.739520713 -s 3 -d -1 -p diffusion -e 0 -c 2 -a 1 -i 904563173 -k MAC
+ -t 1.757632010 -s 6 -d -1 -p diffusion -e 58 -c 2 -a 1 -i 904563172 -k MAC 
- -t 1.757632010 -s 6 -d -1 -p diffusion -e 58 -c 2 -a 1 -i 904563172 -k MAC
h -t 1.757632010 -s 6 -d -1 -p diffusion -e 58 -c 2 -a 1 -i 904563172 -k MAC
r -t 1.758096129 -s 0 -d -1 -p diffusion -e 0 -c 2 -a 1 -i 904563172 -k MAC
r -t 1.758096158 -s 8 -d -1 -p diffusion -e 0 -c 2 -a 1 -i 904563172 -k MAC
r -t 1.758096655 -s 5 -d -1 -p diffusion -e 0 -c 2 -a 1 -i 904563172 -k MAC
r -t 1.758096814 -s 4 -d -1 -p diffusion -e 0 -c 2 -a 1 -i 904563172 -k MAC
r -t 1.758096826 -s 3 -d -1 -p diffusion -e 0 -c 2 -a 1 -i 904563172 -k MAC
+ -t 1.775423584 -s 6 -d -1 -p diffusion -e 58 -c 2 -a 1 -i 23210735 -k MAC 
- -t 1.775423584 -s 6 -d -1 -p diffusion -e 58 -c 2 -a 1 -i 23210735 -k MAC
h -t 1.775423584 -s 6 -d -1 -p diffusion -e 58 -c 2 -a 1 -i 23210735 -k MAC
r -t 1.775887703 -s 0 -d -1 -p diffusion -e 0 -c 2 -a 1 -i 23210735 -k MAC
r -t 1.775887732 -s 8 -d -1 -p diffusion -e 0 -c 2 -a 1 -i 23210735 -k MAC
r -t 1.775888229 -s 5 -d -1 -p diffusion -e 0 -c 2 -a 1 -i 23210735 -k MAC
r -t 1.775888389 -s 4 -d -1 -p diffusion -e 0 -c 2 -a 1 -i 23210735 -k MAC
r -t 1.775888401 -s 3 -d -1 -p diffusion -e 0 -c 2 -a 1 -i 23210735 -k MAC
+ -t 1.792186270 -s 4 -d -1 -p diffusion -e 58 -c 2 -a 1 -i 107660670 -k MAC 
- -t 1.792186270 -s 4 -d -1 -p diffusion -e 58 -c 2 -a 1 -i 107660670 -k MAC
h -t 1.792186270 -s 4 -d -1 -p diffusion -e 58 -c 2 -a 1 -i 107660670 -k MAC
r -t 1.792650464 -s 3 -d -1 -p diffusion -e 0 -c 2 -a 1 -i 107660670 -k MAC
r -t 1.792650747 -s 1 -d -1 -p diffusion -e 0 -c 2 -a 1 -i 107660670 -k MAC
r -t 1.792650805 -s 9 -d -1 -p diffusion -e 0 -c 2 -a 1 -i 107660670 -k MAC
r -t 1.792650860 -s 2 -d -1 -p diffusion -e 0 -c 2 -a 1 -i 107660670 -k MAC
r -t 1.792651074 -s 6 -d -1 -p diffusion -e 0 -c 2 -a 1 -i 107660670 -k MAC
+ -t 1.800793716 -s 8 -d -1 -p diffusion -e 58 -c 2 -a 1 -i 1563457802 -k MAC 
- -t 1.800793716 -s 8 -d -1 -p diffusion -e 58 -c 2 -a 1 -i 1563457802 -k MAC
h -t 1.800793716 -s 8 -d -1 -p diffusion -e 58 -c 2 -a 1 -i 1563457802 -k MAC
r -t 1.801257864 -s 6 -d -1 -p diffusion -e 0 -c 2 -a 1 -i 1563457802 -k MAC
r -t 1.801257941 -s 0 -d -1 -p diffusion -e 0 -c 2 -a 1 -i 1563457802 -k MAC
r -t 1.801258440 -s 5 -d -1 -p diffusion -e 0 -c 2 -a 1 -i 1563457802 -k MAC
+ -t 1.807591646 -s 2 -d -1 -p diffusion -e 58 -c 2 -a 1 -i 383815138 -k MAC 
- -t 1.807591646 -s 2 -d -1 -p diffusion -e 58 -c 2 -a 1 -i 383815138 -k MAC
h -t 1.807591646 -s 2 -d -1 -p diffusion -e 58 -c 2 -a 1 -i 383815138 -k MAC
r -t 1.808055974 -s 9 -d -1 -p diffusion -e 0 -c 2 -a 1 -i 383815138 -k MAC
r -t 1.808056099 -s 3 -d -1 -p diffusion -e 0 -c 2 -a 1 -i 383815138 -k MAC
r -t 1.808056203 -s 7 -d -1 -p diffusion -e 0 -c 2 -a 1 -i 383815138 -k MAC
r -t 1.808056236 -s 4 -d -1 -p diffusion -e 0 -c 2 -a 1 -i 383815138 -k MAC
r -t 1.808056356 -s 1 -d -1 -p diffusion -e 0 -c 2 -a 1 -i 383815138 -k MAC
+ -t 1.836119989 -s 5 -d -1 -p diffusion -e 58 -c 2 -a 1 -i 1144390928 -k MAC 
- -t 1.836119989 -s 5 -d -1 -p diffusion -e 58 -c 2 -a 1 -i 1144390928 -k MAC
h -t 1.836119989 -s 5 -d -1 -p diffusion -e 58 -c 2 -a 1 -i 1144390928 -k MAC
r -t 1.836584515 -s 0 -d -1 -p diffusion -e 0 -c 2 -a 1 -i 1144390928 -k MAC
r -t 1.836584634 -s 6 -d -1 -p diffusion -e 0 -c 2 -a 1 -i 1144390928 -k MAC
r -t 1.836584713 -s 8 -d -1 -p diffusion -e 0 -c 2 -a 1 -i 1144390928 -k MAC
+ -t 1.855190542 -s 5 -d -1 -p diffusion -e 58 -c 2 -a 1 -i 1144390927 -k MAC 
- -t 1.855190542 -s 5 -d -1 -p diffusion -e 58 -c 2 -a 1 -i 1144390927 -k MAC
h -t 1.855190542 -s 5 -d -1 -p diffusion -e 58 -c 2 -a 1 -i 1144390927 -k MAC
r -t 1.855655068 -s 0 -d -1 -p diffusion -e 0 -c 2 -a 1 -i 1144390927 -k MAC
r -t 1.855655186 -s 6 -d -1 -p diffusion -e 0 -c 2 -a 1 -i 1144390927 -k MAC
r -t 1.855655266 -s 8 -d -1 -p diffusion -e 0 -c 2 -a 1 -i 1144390927 -k MAC
+ -t 1.868553703 -s 0 -d -1 -p diffusion -e 58 -c 2 -a 1 -i 23210735 -k MAC 