v testName tahoe2
+ 1.00504 2 3 tcp 40 ------- 0 0.0 3.0 0 0
- 1.00504 2 3 tcp 40 ------- 0 0.0 3.0 0 0
r 1.10544 2 3 tcp 40 ------- 0 0.0 3.0 0 0
+ 1.20584 2 0 ack 40 ------- 0 3.0 0.0 0 1
- 1.20584 2 0 ack 40 ------- 0 3.0 0.0 0 1
r 1.21088 2 0 ack 40 ------- 0 3.0 0.0 0 1
+ 1.21688 2 3 tcp 1000 ------- 0 0.0 3.0 1 2
- 1.21688 2 3 tcp 1000 ------- 0 0.0 3.0 1 2
+ 1.21788 2 3 tcp 1000 ------- 0 0.0 3.0 2 3
- 1.22688 2 3 tcp 1000 ------- 0 0.0 3.0 2 3
r 1.32688 2 3 tcp 1000 ------- 0 0.0 3.0 1 2
r 1.33688 2 3 tcp 1000 ------- 0 0.0 3.0 2 3
+ 1.42728 2 0 ack 40 ------- 0 3.0 0.0 1 4
- 1.42728 2 0 ack 40 ------- 0 3.0 0.0 1 4
r 1.43232 2 0 ack 40 ------- 0 3.0 0.0 1 4
+ 1.43728 2 0 ack 40 ------- 0 3.0 0.0 2 5
- 1.43728 2 0 ack 40 ------- 0 3.0 0.0 2 5
+ 1.43832 2 3 tcp 1000 ------- 0 0.0 3.0 3 6
- 1.43832 2 3 tcp 1000 ------- 0 0.0 3.0 3 6
+ 1.43932 2 3 tcp 1000 ------- 0 0.0 3.0 4 7
r 1.44232 2 0 ack 40 ------- 0 3.0 0.0 2 5
- 1.44832 2 3 tcp 1000 ------- 0 0.0 3.0 4 7
+ 1.44832 2 3 tcp 1000 ------- 0 0.0 3.0 5 8
+ 1.44932 2 3 tcp 1000 ------- 0 0.0 3.0 6 9
- 1.45832 2 3 tcp 1000 ------- 0 0.0 3.0 5 8
- 1.46832 2 3 tcp 1000 ------- 0 0.0 3.0 6 9
r 1.54832 2 3 tcp 1000 ------- 0 0.0 3.0 3 6
r 1.55832 2 3 tcp 1000 ------- 0 0.0 3.0 4 7
r 1.56832 2 3 tcp 1000 ------- 0 0.0 3.0 5 8
r 1.57832 2 3 tcp 1000 ------- 0 0.0 3.0 6 9
+ 1.64872 2 0 ack 40 ------- 0 3.0 0.0 3 10
- 1.64872 2 0 ack 40 ------- 0 3.0 0.0 3 10
r 1.65376 2 0 ack 40 ------- 0 3.0 0.0 3 10
+ 1.65872 2 0 ack 40 ------- 0 3.0 0.0 4 11
- 1.65872 2 0 ack 40 ------- 0 3.0 0.0 4 11
+ 1.65976 2 3 tcp 1000 ------- 0 0.0 3.0 7 14
- 1.65976 2 3 tcp 1000 ------- 0 0.0 3.0 7 14
+ 1.66076 2 3 tcp 1000 ------- 0 0.0 3.0 8 15
r 1.66376 2 0 ack 40 ------- 0 3.0 0.0 4 11
+ 1.66872 2 0 ack 40 ------- 0 3.0 0.0 5 12
- 1.66872 2 0 ack 40 ------- 0 3.0 0.0 5 12
- 1.66976 2 3 tcp 1000 ------- 0 0.0 3.0 8 15
+ 1.66976 2 3 tcp 1000 ------- 0 0.0 3.0 9 16
+ 1.67076 2 3 tcp 1000 ------- 0 0.0 3.0 10 17
r 1.67376 2 0 ack 40 ------- 0 3.0 0.0 5 12
+ 1.67872 2 0 ack 40 ------- 0 3.0 0.0 6 13
- 1.67872 2 0 ack 40 ------- 0 3.0 0.0 6 13
- 1.67976 2 3 tcp 1000 ------- 0 0.0 3.0 9 16
+ 1.67976 2 3 tcp 1000 ------- 0 0.0 3.0 11 18
+ 1.68076 2 3 tcp 1000 ------- 0 0.0 3.0 12 19
r 1.68376 2 0 ack 40 ------- 0 3.0 0.0 6 13
- 1.68976 2 3 tcp 1000 ------- 0 0.0 3.0 10 17
+ 1.68976 2 3 tcp 1000 ------- 0 0.0 3.0 13 20
+ 1.69076 2 3 tcp 1000 ------- 0 0.0 3.0 14 21
- 1.69976 2 3 tcp 1000 ------- 0 0.0 3.0 11 18
- 1.70976 2 3 tcp 1000 ------- 0 0.0 3.0 12 19
- 1.71976 2 3 tcp 1000 ------- 0 0.0 3.0 13 20
- 1.72976 2 3 tcp 1000 ------- 0 0.0 3.0 14 21
r 1.76976 2 3 tcp 1000 ------- 0 0.0 3.0 7 14
r 1.77976 2 3 tcp 1000 ------- 0 0.0 3.0 8 15
r 1.78976 2 3 tcp 1000 ------- 0 0.0 3.0 9 16
r 1.79976 2 3 tcp 1000 ------- 0 0.0 3.0 10 17
r 1.80976 2 3 tcp 1000 ------- 0 0.0 3.0 11 18
r 1.81976 2 3 tcp 1000 ------- 0 0.0 3.0 12 19
r 1.82976 2 3 tcp 1000 ------- 0 0.0 3.0 13 20
r 1.83976 2 3 tcp 1000 ------- 0 0.0 3.0 14 21
+ 1.87016 2 0 ack 40 ------- 0 3.0 0.0 7 22
- 1.87016 2 0 ack 40 ------- 0 3.0 0.0 7 22
r 1.8752 2 0 ack 40 ------- 0 3.0 0.0 7 22
+ 1.88016 2 0 ack 40 ------- 0 3.0 0.0 8 23
- 1.88016 2 0 ack 40 ------- 0 3.0 0.0 8 23
+ 1.8812 2 3 tcp 1000 ------- 0 0.0 3.0 15 30
- 1.8812 2 3 tcp 1000 ------- 0 0.0 3.0 15 30
+ 1.8822 2 3 tcp 1000 ------- 0 0.0 3.0 16 31
r 1.8852 2 0 ack 40 ------- 0 3.0 0.0 8 23
+ 1.89016 2 0 ack 40 ------- 0 3.0 0.0 9 24
- 1.89016 2 0 ack 40 ------- 0 3.0 0.0 9 24
- 1.8912 2 3 tcp 1000 ------- 0 0.0 3.0 16 31
+ 1.8912 2 3 tcp 1000 ------- 0 0.0 3.0 17 32
+ 1.8922 2 3 tcp 1000 ------- 0 0.0 3.0 18 33
r 1.8952 2 0 ack 40 ------- 0 3.0 0.0 9 24
+ 1.90016 2 0 ack 40 ------- 0 3.0 0.0 10 25
- 1.90016 2 0 ack 40 ------- 0 3.0 0.0 10 25
- 1.9012 2 3 tcp 1000 ------- 0 0.0 3.0 17 32
+ 1.9012 2 3 tcp 1000 ------- 0 0.0 3.0 19 34
+ 1.9022 2 3 tcp 1000 ------- 0 0.0 3.0 20 35
r 1.9052 2 0 ack 40 ------- 0 3.0 0.0 10 25
+ 1.91016 2 0 ack 40 ------- 0 3.0 0.0 11 26
- 1.91016 2 0 ack 40 ------- 0 3.0 0.0 11 26
- 1.9112 2 3 tcp 1000 ------- 0 0.0 3.0 18 33
+ 1.9112 2 3 tcp 1000 ------- 0 0.0 3.0 21 36
+ 1.9122 2 3 tcp 1000 ------- 0 0.0 3.0 22 37
r 1.9152 2 0 ack 40 ------- 0 3.0 0.0 11 26
+ 1.92016 2 0 ack 40 ------- 0 3.0 0.0 12 27
- 1.92016 2 0 ack 40 ------- 0 3.0 0.0 12 27
- 1.9212 2 3 tcp 1000 ------- 0 0.0 3.0 19 34
+ 1.9212 2 3 tcp 1000 ------- 0 0.0 3.0 23 38
+ 1.9222 2 3 tcp 1000 ------- 0 0.0 3.0 24 39
r 1.9252 2 0 ack 40 ------- 0 3.0 0.0 12 27
+ 1.93016 2 0 ack 40 ------- 0 3.0 0.0 13 28
- 1.93016 2 0 ack 40 ------- 0 3.0 0.0 13 28
- 1.9312 2 3 tcp 1000 ------- 0 0.0 3.0 20 35
+ 1.9312 2 3 tcp 1000 ------- 0 0.0 3.0 25 40
+ 1.9322 2 3 tcp 1000 ------- 0 0.0 3.0 26 41
d 1.9322 2 3 tcp 1000 ------- 0 0.0 3.0 26 41
r 1.9352 2 0 ack 40 ------- 0 3.0 0.0 13 28
+ 1.94016 2 0 ack 40 ------- 0 3.0 0.0 14 29
- 1.94016 2 0 ack 40 ------- 0 3.0 0.0 14 29
- 1.9412 2 3 tcp 1000 ------- 0 0.0 3.0 21 36
+ 1.9412 2 3 tcp 1000 ------- 0 0.0 3.0 27 42
r 1.9452 2 0 ack 40 ------- 0 3.0 0.0 14 29
- 1.9512 2 3 tcp 1000 ------- 0 0.0 3.0 22 37
+ 1.9512 2 3 tcp 1000 ------- 0 0.0 3.0 28 43
- 1.9612 2 3 tcp 1000 ------- 0 0.0 3.0 23 38
- 1.9712 2 3 tcp 1000 ------- 0 0.0 3.0 24 39
- 1.9812 2 3 tcp 1000 ------- 0 0.0 3.0 25 40
r 1.9912 2 3 tcp 1000 ------- 0 0.0 3.0 15 30
- 1.9912 2 3 tcp 1000 ------- 0 0.0 3.0 27 42
r 2.0012 2 3 tcp 1000 ------- 0 0.0 3.0 16 31
- 2.0012 2 3 tcp 1000 ------- 0 0.0 3.0 28 43
r 2.0112 2 3 tcp 1000 ------- 0 0.0 3.0 17 32
r 2.0212 2 3 tcp 1000 ------- 0 0.0 3.0 18 33
r 2.0312 2 3 tcp 1000 ------- 0 0.0 3.0 19 34
r 2.0412 2 3 tcp 1000 ------- 0 0.0 3.0 20 35
r 2.0512 2 3 tcp 1000 ------- 0 0.0 3.0 21 36
r 2.0612 2 3 tcp 1000 ------- 0 0.0 3.0 22 37
r 2.0712 2 3 tcp 1000 ------- 0 0.0 3.0 23 38
r 2.0812 2 3 tcp 1000 ------- 0 0.0 3.0 24 39
r 2.0912 2 3 tcp 1000 ------- 0 0.0 3.0 25 40
+ 2.0916 2 0 ack 40 ------- 0 3.0 0.0 15 44
- 2.0916 2 0 ack 40 ------- 0 3.0 0.0 15 44
r 2.09664 2 0 ack 40 ------- 0 3.0 0.0 15 44
r 2.1012 2 3 tcp 1000 ------- 0 0.0 3.0 27 42
+ 2.1016 2 0 ack 40 ------- 0 3.0 0.0 16 45
- 2.1016 2 0 ack 40 ------- 0 3.0 0.0 16 45
+ 2.10264 2 3 tcp 1000 ------- 0 0.0 3.0 29 55
- 2.10264 2 3 tcp 1000 ------- 0 0.0 3.0 29 55
r 2.10664 2 0 ack 40 ------- 0 3.0 0.0 16 45
r 2.1112 2 3 tcp 1000 ------- 0 0.0 3.0 28 43
+ 2.1116 2 0 ack 40 ------- 0 3.0 0.0 17 46
- 2.1116 2 0 ack 40 ------- 0 3.0 0.0 17 46
+ 2.11264 2 3 tcp 1000 ------- 0 0.0 3.0 30 57
- 2.11264 2 3 tcp 1000 ------- 0 0.0 3.0 30 57
r 2.11664 2 0 ack 40 ------- 0 3.0 0.0 17 46
+ 2.1216 2 0 ack 40 ------- 0 3.0 0.0 18 47
- 2.1216 2 0 ack 40 ------- 0 3.0 0.0 18 47
+ 2.12264 2 3 tcp 1000 ------- 0 0.0 3.0 31 59
- 2.12264 2 3 tcp 1000 ------- 0 0.0 3.0 31 59
r 2.12664 2 0 ack 40 ------- 0 3.0 0.0 18 47
+ 2.1316 2 0 ack 40 ------- 0 3.0 0.0 19 48
- 2.1316 2 0 ack 40 ------- 0 3.0 0.0 19 48
+ 2.13264 2 3 tcp 1000 ------- 0 0.0 3.0 32 60
- 2.13264 2 3 tcp 1000 ------- 0 0.0 3.0 32 60
r 2.13664 2 0 ack 40 ------- 0 3.0 0.0 19 48
+ 2.1416 2 0 ack 40 ------- 0 3.0 0.0 20 49
- 2.1416 2 0 ack 40 ------- 0 3.0 0.0 20 49
+ 2.14264 2 3 tcp 1000 ------- 0 0.0 3.0 33 61
- 2.14264 2 3 tcp 1000 ------- 0 0.0 3.0 33 61
r 2.14664 2 0 ack 40 ------- 0 3.0 0.0 20 49
+ 2.1516 2 0 ack 40 ------- 0 3.0 0.0 21 50
- 2.1516 2 0 ack 40 ------- 0 3.0 0.0 21 50
+ 2.15264 2 3 tcp 1000 ------- 0 0.0 3.0 34 62
- 2.15264 2 3 tcp 1000 ------- 0 0.0 3.0 34 62
r 2.15664 2 0 ack 40 ------- 0 3.0 0.0 21 50
+ 2.1616 2 0 ack 40 ------- 0 3.0 0.0 22 51
- 2.1616 2 0 ack 40 ------- 0 3.0 0.0 22 51
+ 2.16264 2 3 tcp 1000 ------- 0 0.0 3.0 35 63
- 2.16264 2 3 tcp 1000 ------- 0 0.0 3.0 35 63
r 2.16664 2 0 ack 40 ------- 0 3.0 0.0 22 51
+ 2.1716 2 0 ack 40 ------- 0 3.0 0.0 23 52
- 2.1716 2 0 ack 40 ------- 0 3.0 0.0 23 52
+ 2.17264 2 3 tcp 1000 ------- 0 0.0 3.0 36 64
- 2.17264 2 3 tcp 1000 ------- 0 0.0 3.0 36 64
r 2.17664 2 0 ack 40 ------- 0 3.0 0.0 23 52
+ 2.1816 2 0 ack 40 ------- 0 3.0 0.0 24 53
- 2.1816 2 0 ack 40 ------- 0 3.0 0.0 24 53
+ 2.18264 2 3 tcp 1000 ------- 0 0.0 3.0 37 65
- 2.18264 2 3 tcp 1000 ------- 0 0.0 3.0 37 65
r 2.18664 2 0 ack 40 ------- 0 3.0 0.0 24 53
+ 2.1916 2 0 ack 40 ------- 0 3.0 0.0 25 54
- 2.1916 2 0 ack 40 ------- 0 3.0 0.0 25 54
+ 2.19264 2 3 tcp 1000 ------- 0 0.0 3.0 38 66
- 2.19264 2 3 tcp 1000 ------- 0 0.0 3.0 38 66
r 2.19664 2 0 ack 40 ------- 0 3.0 0.0 25 54
+ 2.2016 2 0 ack 40 ------- 0 3.0 0.0 25 56
- 2.2016 2 0 ack 40 ------- 0 3.0 0.0 25 56
+ 2.20264 2 3 tcp 1000 ------- 0 0.0 3.0 39 67
- 2.20264 2 3 tcp 1000 ------- 0 0.0 3.0 39 67
r 2.20664 2 0 ack 40 ------- 0 3.0 0.0 25 56
+ 2.2116 2 0 ack 40 ------- 0 3.0 0.0 25 58
- 2.2116 2 0 ack 40 ------- 0 3.0 0.0 25 58
r 2.21264 2 3 tcp 1000 ------- 0 0.0 3.0 29 55
r 2.21664 2 0 ack 40 ------- 0 3.0 0.0 25 58
r 2.22264 2 3 tcp 1000 ------- 0 0.0 3.0 30 57
r 2.23264 2 3 tcp 1000 ------- 0 0.0 3.0 31 59
r 2.24264 2 3 tcp 1000 ------- 0 0.0 3.0 32 60
r 2.25264 2 3 tcp 1000 ------- 0 0.0 3.0 33 61
r 2.26264 2 3 tcp 1000 ------- 0 0.0 3.0 34 62
r 2.27264 2 3 tcp 1000 ------- 0 0.0 3.0 35 63
r 2.28264 2 3 tcp 1000 ------- 0 0.0 3.0 36 64
r 2.29264 2 3 tcp 1000 ------- 0 0.0 3.0 37 65
r 2.30264 2 3 tcp 1000 ------- 0 0.0 3.0 38 66
r 2.31264 2 3 tcp 1000 ------- 0 0.0 3.0 39 67
+ 2.31304 2 0 ack 40 ------- 0 3.0 0.0 25 68
- 2.31304 2 0 ack 40 ------- 0 3.0 0.0 25 68
r 2.31808 2 0 ack 40 ------- 0 3.0 0.0 25 68
+ 2.32304 2 0 ack 40 ------- 0 3.0 0.0 25 69
- 2.32304 2 0 ack 40 ------- 0 3.0 0.0 25 69
+ 2.32408 2 3 tcp 1000 ---A--- 0 0.0 3.0 26 79
- 2.32408 2 3 tcp 1000 ---A--- 0 0.0 3.0 26 79
r 2.32808 2 0 ack 40 ------- 0 3.0 0.0 25 69
+ 2.33304 2 0 ack 40 ------- 0 3.0 0.0 25 70
- 2.33304 2 0 ack 40 ------- 0 3.0 0.0 25 70
r 2.33808 2 0 ack 40 ------- 0 3.0 0.0 25 70
+ 2.34304 2 0 ack 40 ------- 0 3.0 0.0 25 71
- 2.34304 2 0 ack 40 ------- 0 3.0 0.0 25 71
r 2.34808 2 0 ack 40 ------- 0 3.0 0.0 25 71
+ 2.35304 2 0 ack 40 ------- 0 3.0 0.0 25 72
- 2.35304 2 0 ack 40 ------- 0 3.0 0.0 25 72
r 2.35808 2 0 ack 40 ------- 0 3.0 0.0 25 72
+ 2.36304 2 0 ack 40 ------- 0 3.0 0.0 25 73
- 2.36304 2 0 ack 40 ------- 0 3.0 0.0 25 73
r 2.36808 2 0 ack 40 ------- 0 3.0 0.0 25 73
+ 2.37304 2 0 ack 40 ------- 0 3.0 0.0 25 74
- 2.37304 2 0 ack 40 ------- 0 3.0 0.0 25 74
r 2.37808 2 0 ack 40 ------- 0 3.0 0.0 25 74
+ 2.38304 2 0 ack 40 ------- 0 3.0 0.0 25 75
- 2.38304 2 0 ack 40 ------- 0 3.0 0.0 25 75
r 2.38808 2 0 ack 40 ------- 0 3.0 0.0 25 75
+ 2.39304 2 0 ack 40 ------- 0 3.0 0.0 25 76
- 2.39304 2 0 ack 40 ------- 0 3.0 0.0 25 76
r 2.39808 2 0 ack 40 ------- 0 3.0 0.0 25 76
+ 2.40304 2 0 ack 40 ------- 0 3.0 0.0 25 77
- 2.40304 2 0 ack 40 ------- 0 3.0 0.0 25 77
r 2.40808 2 0 ack 40 ------- 0 3.0 0.0 25 77
+ 2.41304 2 0 ack 40 ------- 0 3.0 0.0 25 78
- 2.41304 2 0 ack 40 ------- 0 3.0 0.0 25 78
r 2.41808 2 0 ack 40 ------- 0 3.0 0.0 25 78
r 2.43408 2 3 tcp 1000 ---A--- 0 0.0 3.0 26 79
+ 2.53448 2 0 ack 40 ------- 0 3.0 0.0 39 80
- 2.53448 2 0 ack 40 ------- 0 3.0 0.0 39 80
r 2.53952 2 0 ack 40 ------- 0 3.0 0.0 39 80
+ 2.54552 2 3 tcp 1000 ------- 0 0.0 3.0 40 81
- 2.54552 2 3 tcp 1000 ------- 0 0.0 3.0 40 81
+ 2.54652 2 3 tcp 1000 ------- 0 0.0 3.0 41 82
- 2.55552 2 3 tcp 1000 ------- 0 0.0 3.0 41 82
r 2.65552 2 3 tcp 1000 ------- 0 0.0 3.0 40 81
r 2.66552 2 3 tcp 1000 ------- 0 0.0 3.0 41 82
+ 2.75592 2 0 ack 40 ------- 0 3.0 0.0 40 83
- 2.75592 2 0 ack 40 ------- 0 3.0 0.0 40 83
r 2.76096 2 0 ack 40 ------- 0 3.0 0.0 40 83
+ 2.76592 2 0 ack 40 ------- 0 3.0 0.0 41 84
- 2.76592 2 0 ack 40 ------- 0 3.0 0.0 41 84
+ 2.76696 2 3 tcp 1000 ------- 0 0.0 3.0 42 85
- 2.76696 2 3 tcp 1000 ------- 0 0.0 3.0 42 85
+ 2.76796 2 3 tcp 1000 ------- 0 0.0 3.0 43 86
r 2.77096 2 0 ack 40 ------- 0 3.0 0.0 41 84
- 2.77696 2 3 tcp 1000 ------- 0 0.0 3.0 43 86
+ 2.77696 2 3 tcp 1000 ------- 0 0.0 3.0 44 87
+ 2.77796 2 3 tcp 1000 ------- 0 0.0 3.0 45 88
- 2.78696 2 3 tcp 1000 ------- 0 0.0 3.0 44 87
- 2.79696 2 3 tcp 1000 ------- 0 0.0 3.0 45 88
r 2.87696 2 3 tcp 1000 ------- 0 0.0 3.0 42 85
r 2.88696 2 3 tcp 1000 ------- 0 0.0 3.0 43 86
r 2.89696 2 3 tcp 1000 ------- 0 0.0 3.0 44 87
r 2.90696 2 3 tcp 1000 ------- 0 0.0 3.0 45 88
+ 2.97736 2 0 ack 40 ------- 0 3.0 0.0 42 89
- 2.97736 2 0 ack 40 ------- 0 3.0 0.0 42 89
r 2.9824 2 0 ack 40 ------- 0 3.0 0.0 42 89
+ 2.98736 2 0 ack 40 ------- 0 3.0 0.0 43 90
- 2.98736 2 0 ack 40 ------- 0 3.0 0.0 43 90
+ 2.9884 2 3 tcp 1000 ------- 0 0.0 3.0 46 93
- 2.9884 2 3 tcp 1000 ------- 0 0.0 3.0 46 93
+ 2.9894 2 3 tcp 1000 ------- 0 0.0 3.0 47 94
r 2.9924 2 0 ack 40 ------- 0 3.0 0.0 43 90
+ 2.99736 2 0 ack 40 ------- 0 3.0 0.0 44 91
- 2.99736 2 0 ack 40 ------- 0 3.0 0.0 44 91
- 2.9984 2 3 tcp 1000 ------- 0 0.0 3.0 47 94
+ 2.9984 2 3 tcp 1000 ------- 0 0.0 3.0 48 95
+ 2.9994 2 3 tcp 1000 ------- 0 0.0 3.0 49 96
r 3.0024 2 0 ack 40 ------- 0 3.0 0.0 44 91
+ 3.00736 2 0 ack 40 ------- 0 3.0 0.0 45 92
- 3.00736 2 0 ack 40 ------- 0 3.0 0.0 45 92
- 3.0084 2 3 tcp 1000 ------- 0 0.0 3.0 48 95
+ 3.0084 2 3 tcp 1000 ------- 0 0.0 3.0 50 97
+ 3.0094 2 3 tcp 1000 ------- 0 0.0 3.0 51 98
r 3.0124 2 0 ack 40 ------- 0 3.0 0.0 45 92
- 3.0184 2 3 tcp 1000 ------- 0 0.0 3.0 49 96
+ 3.0184 2 3 tcp 1000 ------- 0 0.0 3.0 52 99
- 3.0284 2 3 tcp 1000 ------- 0 0.0 3.0 50 97
- 3.0384 2 3 tcp 1000 ------- 0 0.0 3.0 51 98
- 3.0484 2 3 tcp 1000 ------- 0 0.0 3.0 52 99
r 3.0984 2 3 tcp 1000 ------- 0 0.0 3.0 46 93
r 3.1084 2 3 tcp 1000 ------- 0 0.0 3.0 47 94
r 3.1184 2 3 tcp 1000 ------- 0 0.0 3.0 48 95
r 3.1284 2 3 tcp 1000 ------- 0 0.0 3.0 49 96
r 3.1384 2 3 tcp 1000 ------- 0 0.0 3.0 50 97
r 3.1484 2 3 tcp 1000 ------- 0 0.0 3.0 51 98
r 3.1584 2 3 tcp 1000 ------- 0 0.0 3.0 52 99
+ 3.1988 2 0 ack 40 ------- 0 3.0 0.0 46 100
- 3.1988 2 0 ack 40 ------- 0 3.0 0.0 46 100
r 3.20384 2 0 ack 40 ------- 0 3.0 0.0 46 100
+ 3.2088 2 0 ack 40 ------- 0 3.0 0.0 47 101
- 3.2088 2 0 ack 40 ------- 0 3.0 0.0 47 101
+ 3.20984 2 3 tcp 1000 ------- 0 0.0 3.0 53 107
- 3.20984 2 3 tcp 1000 ------- 0 0.0 3.0 53 107
r 3.21384 2 0 ack 40 ------- 0 3.0 0.0 47 101
+ 3.2188 2 0 ack 40 ------- 0 3.0 0.0 48 102
- 3.2188 2 0 ack 40 ------- 0 3.0 0.0 48 102
+ 3.21984 2 3 tcp 1000 ------- 0 0.0 3.0 54 108
- 3.21984 2 3 tcp 1000 ------- 0 0.0 3.0 54 108
r 3.22384 2 0 ack 40 ------- 0 3.0 0.0 48 102
+ 3.2288 2 0 ack 40 ------- 0 3.0 0.0 49 103
- 3.2288 2 0 ack 40 ------- 0 3.0 0.0 49 103
+ 3.22984 2 3 tcp 1000 ------- 0 0.0 3.0 55 109
- 3.22984 2 3 tcp 1000 ------- 0 0.0 3.0 55 109
r 3.23384 2 0 ack 40 ------- 0 3.0 0.0 49 103
+ 3.2388 2 0 ack 40 ------- 0 3.0 0.0 50 104
- 3.2388 2 0 ack 40 ------- 0 3.0 0.0 50 104
+ 3.23984 2 3 tcp 1000 ------- 0 0.0 3.0 56 110
- 3.23984 2 3 tcp 1000 ------- 0 0.0 3.0 56 110
r 3.24384 2 0 ack 40 ------- 0 3.0 0.0 50 104
+ 3.2488 2 0 ack 40 ------- 0 3.0 0.0 51 105
- 3.2488 2 0 ack 40 ------- 0 3.0 0.0 51 105
+ 3.24984 2 3 tcp 1000 ------- 0 0.0 3.0 57 111
- 3.24984 2 3 tcp 1000 ------- 0 0.0 3.0 57 111
r 3.25384 2 0 ack 40 ------- 0 3.0 0.0 51 105
+ 3.2588 2 0 ack 40 ------- 0 3.0 0.0 52 106
- 3.2588 2 0 ack 40 ------- 0 3.0 0.0 52 106
+ 3.25984 2 3 tcp 1000 ------- 0 0.0 3.0 58 112
- 3.25984 2 3 tcp 1000 ------- 0 0.0 3.0 58 112
r 3.26384 2 0 ack 40 ------- 0 3.0 0.0 52 106
+ 3.26984 2 3 tcp 1000 ------- 0 0.0 3.0 59 113
- 3.26984 2 3 tcp 1000 ------- 0 0.0 3.0 59 113
+ 3.27084 2 3 tcp 1000 ------- 0 0.0 3.0 60 114
- 3.27984 2 3 tcp 1000 ------- 0 0.0 3.0 60 114
r 3.31984 2 3 tcp 1000 ------- 0 0.0 3.0 53 107
r 3.32984 2 3 tcp 1000 ------- 0 0.0 3.0 54 108
r 3.33984 2 3 tcp 1000 ------- 0 0.0 3.0 55 109
r 3.34984 2 3 tcp 1000 ------- 0 0.0 3.0 56 110
r 3.35984 2 3 tcp 1000 ------- 0 0.0 3.0 57 111
r 3.36984 2 3 tcp 1000 ------- 0 0.0 3.0 58 112
r 3.37984 2 3 tcp 1000 ------- 0 0.0 3.0 59 113
r 3.38984 2 3 tcp 1000 ------- 0 0.0 3.0 60 114
+ 3.42024 2 0 ack 40 ------- 0 3.0 0.0 53 115
- 3.42024 2 0 ack 40 ------- 0 3.0 0.0 53 115
r 3.42528 2 0 ack 40 ------- 0 3.0 0.0 53 115
+ 3.43024 2 0 ack 40 ------- 0 3.0 0.0 54 116
- 3.43024 2 0 ack 40 ------- 0 3.0 0.0 54 116
+ 3.43128 2 3 tcp 1000 ------- 0 0.0 3.0 61 123
- 3.43128 2 3 tcp 1000 ------- 0 0.0 3.0 61 123
r 3.43528 2 0 ack 40 ------- 0 3.0 0.0 54 116
+ 3.44024 2 0 ack 40 ------- 0 3.0 0.0 55 117
- 3.44024 2 0 ack 40 ------- 0 3.0 0.0 55 117
+ 3.44128 2 3 tcp 1000 ------- 0 0.0 3.0 62 124
- 3.44128 2 3 tcp 1000 ------- 0 0.0 3.0 62 124
r 3.44528 2 0 ack 40 ------- 0 3.0 0.0 55 117
+ 3.45024 2 0 ack 40 ------- 0 3.0 0.0 56 118
- 3.45024 2 0 ack 40 ------- 0 3.0 0.0 56 118
+ 3.45128 2 3 tcp 1000 ------- 0 0.0 3.0 63 125
- 3.45128 2 3 tcp 1000 ------- 0 0.0 3.0 63 125
r 3.45528 2 0 ack 40 ------- 0 3.0 0.0 56 118
+ 3.46024 2 0 ack 40 ------- 0 3.0 0.0 57 119
- 3.46024 2 0 ack 40 ------- 0 3.0 0.0 57 119
+ 3.46128 2 3 tcp 1000 ------- 0 0.0 3.0 64 126
- 3.46128 2 3 tcp 1000 ------- 0 0.0 3.0 64 126
r 3.46528 2 0 ack 40 ------- 0 3.0 0.0 57 119
+ 3.47024 2 0 ack 40 ------- 0 3.0 0.0 58 120
- 3.47024 2 0 ack 40 ------- 0 3.0 0.0 58 120
+ 3.47128 2 3 tcp 1000 ------- 0 0.0 3.0 65 127
- 3.47128 2 3 tcp 1000 ------- 0 0.0 3.0 65 127
r 3.47528 2 0 ack 40 ------- 0 3.0 0.0 58 120
+ 3.48024 2 0 ack 40 ------- 0 3.0 0.0 59 121
- 3.48024 2 0 ack 40 ------- 0 3.0 0.0 59 121
+ 3.48128 2 3 tcp 1000 ------- 0 0.0 3.0 66 128
- 3.48128 2 3 tcp 1000 ------- 0 0.0 3.0 66 128
r 3.48528 2 0 ack 40 ------- 0 3.0 0.0 59 121
+ 3.49024 2 0 ack 40 ------- 0 3.0 0.0 60 122
- 3.49024 2 0 ack 40 ------- 0 3.0 0.0 60 122
+ 3.49128 2 3 tcp 1000 ------- 0 0.0 3.0 67 129
- 3.49128 2 3 tcp 1000 ------- 0 0.0 3.0 67 129
r 3.49528 2 0 ack 40 ------- 0 3.0 0.0 60 122
+ 3.50128 2 3 tcp 1000 ------- 0 0.0 3.0 68 130
- 3.50128 2 3 tcp 1000 ------- 0 0.0 3.0 68 130
+ 3.50228 2 3 tcp 1000 ------- 0 0.0 3.0 69 131
- 3.51128 2 3 tcp 1000 ------- 0 0.0 3.0 69 131
r 3.54128 2 3 tcp 1000 ------- 0 0.0 3.0 61 123
r 3.55128 2 3 tcp 1000 ------- 0 0.0 3.0 62 124
r 3.56128 2 3 tcp 1000 ------- 0 0.0 3.0 63 125
r 3.57128 2 3 tcp 1000 ------- 0 0.0 3.0 64 126
r 3.58128 2 3 tcp 1000 ------- 0 0.0 3.0 65 127
r 3.59128 2 3 tcp 1000 ------- 0 0.0 3.0 66 128
r 3.60128 2 3 tcp 1000 ------- 0 0.0 3.0 67 129
r 3.61128 2 3 tcp 1000 ------- 0 0.0 3.0 68 130
r 3.62128 2 3 tcp 1000 ------- 0 0.0 3.0 69 131
+ 3.64168 2 0 ack 40 ------- 0 3.0 0.0 61 132
- 3.64168 2 0 ack 40 ------- 0 3.0 0.0 61 132
r 3.64672 2 0 ack 40 ------- 0 3.0 0.0 61 132
+ 3.65168 2 0 ack 40 ------- 0 3.0 0.0 62 133
- 3.65168 2 0 ack 40 ------- 0 3.0 0.0 62 133
+ 3.65272 2 3 tcp 1000 ------- 0 0.0 3.0 70 141
- 3.65272 2 3 tcp 1000 ------- 0 0.0 3.0 70 141
r 3.65672 2 0 ack 40 ------- 0 3.0 0.0 62 133
+ 3.66168 2 0 ack 40 ------- 0 3.0 0.0 63 134
- 3.66168 2 0 ack 40 ------- 0 3.0 0.0 63 134
+ 3.66272 2 3 tcp 1000 ------- 0 0.0 3.0 71 142
- 3.66272 2 3 tcp 1000 ------- 0 0.0 3.0 71 142
r 3.66672 2 0 ack 40 ------- 0 3.0 0.0 63 134
+ 3.67168 2 0 ack 40 ------- 0 3.0 0.0 64 135
- 3.67168 2 0 ack 40 ------- 0 3.0 0.0 64 135
+ 3.67272 2 3 tcp 1000 ------- 0 0.0 3.0 72 143
- 3.67272 2 3 tcp 1000 ------- 0 0.0 3.0 72 143
r 3.67672 2 0 ack 40 ------- 0 3.0 0.0 64 135
+ 3.68168 2 0 ack 40 ------- 0 3.0 0.0 65 136
- 3.68168 2 0 ack 40 ------- 0 3.0 0.0 65 136
+ 3.68272 2 3 tcp 1000 ------- 0 0.0 3.0 73 144
- 3.68272 2 3 tcp 1000 ------- 0 0.0 3.0 73 144
r 3.68672 2 0 ack 40 ------- 0 3.0 0.0 65 136
+ 3.69168 2 0 ack 40 ------- 0 3.0 0.0 66 137
- 3.69168 2 0 ack 40 ------- 0 3.0 0.0 66 137
+ 3.69272 2 3 tcp 1000 ------- 0 0.0 3.0 74 145
- 3.69272 2 3 tcp 1000 ------- 0 0.0 3.0 74 145
r 3.69672 2 0 ack 40 ------- 0 3.0 0.0 66 137
+ 3.70168 2 0 ack 40 ------- 0 3.0 0.0 67 138
- 3.70168 2 0 ack 40 ------- 0 3.0 0.0 67 138
+ 3.70272 2 3 tcp 1000 ------- 0 0.0 3.0 75 146
- 3.70272 2 3 tcp 1000 ------- 0 0.0 3.0 75 146
r 3.70672 2 0 ack 40 ------- 0 3.0 0.0 67 138
+ 3.71168 2 0 ack 40 ------- 0 3.0 0.0 68 139
- 3.71168 2 0 ack 40 ------- 0 3.0 0.0 68 139
+ 3.71272 2 3 tcp 1000 ------- 0 0.0 3.0 76 147
- 3.71272 2 3 tcp 1000 ------- 0 0.0 3.0 76 147
r 3.71672 2 0 ack 40 ------- 0 3.0 0.0 68 139
+ 3.72168 2 0 ack 40 ------- 0 3.0 0.0 69 140
- 3.72168 2 0 ack 40 ------- 0 3.0 0.0 69 140
+ 3.72272 2 3 tcp 1000 ------- 0 0.0 3.0 77 148
- 3.72272 2 3 tcp 1000 ------- 0 0.0 3.0 77 148
r 3.72672 2 0 ack 40 ------- 0 3.0 0.0 69 140
+ 3.73272 2 3 tcp 1000 ------- 0 0.0 3.0 78 149
- 3.73272 2 3 tcp 1000 ------- 0 0.0 3.0 78 149
r 3.76272 2 3 tcp 1000 ------- 0 0.0 3.0 70 141
r 3.77272 2 3 tcp 1000 ------- 0 0.0 3.0 71 142
r 3.78272 2 3 tcp 1000 ------- 0 0.0 3.0 72 143
r 3.79272 2 3 tcp 1000 ------- 0 0.0 3.0 73 144
r 3.80272 2 3 tcp 1000 ------- 0 0.0 3.0 74 145
r 3.81272 2 3 tcp 1000 ------- 0 0.0 3.0 75 146
r 3.82272 2 3 tcp 1000 ------- 0 0.0 3.0 76 147
r 3.83272 2 3 tcp 1000 ------- 0 0.0 3.0 77 148
r 3.84272 2 3 tcp 1000 ------- 0 0.0 3.0 78 149
+ 3.86312 2 0 ack 40 ------- 0 3.0 0.0 70 150
- 3.86312 2 0 ack 40 ------- 0 3.0 0.0 70 150
r 3.86816 2 0 ack 40 ------- 0 3.0 0.0 70 150
+ 3.87312 2 0 ack 40 ------- 0 3.0 0.0 71 151
- 3.87312 2 0 ack 40 ------- 0 3.0 0.0 71 151
+ 3.87416 2 3 tcp 1000 ------- 0 0.0 3.0 79 159
- 3.87416 2 3 tcp 1000 ------- 0 0.0 3.0 79 159
+ 3.87516 2 3 tcp 1000 ------- 0 0.0 3.0 80 160
r 3.87816 2 0 ack 40 ------- 0 3.0 0.0 71 151
+ 3.88312 2 0 ack 40 ------- 0 3.0 0.0 72 152
- 3.88312 2 0 ack 40 ------- 0 3.0 0.0 72 152
- 3.88416 2 3 tcp 1000 ------- 0 0.0 3.0 80 160
+ 3.88416 2 3 tcp 1000 ------- 0 0.0 3.0 81 161
r 3.88816 2 0 ack 40 ------- 0 3.0 0.0 72 152
+ 3.89312 2 0 ack 40 ------- 0 3.0 0.0 73 153
- 3.89312 2 0 ack 40 ------- 0 3.0 0.0 73 153
- 3.89416 2 3 tcp 1000 ------- 0 0.0 3.0 81 161
+ 3.89416 2 3 tcp 1000 ------- 0 0.0 3.0 82 162
r 3.89816 2 0 ack 40 ------- 0 3.0 0.0 73 153
+ 3.90312 2 0 ack 40 ------- 0 3.0 0.0 74 154
- 3.90312 2 0 ack 40 ------- 0 3.0 0.0 74 154
- 3.90416 2 3 tcp 1000 ------- 0 0.0 3.0 82 162
+ 3.90416 2 3 tcp 1000 ------- 0 0.0 3.0 83 163
r 3.90816 2 0 ack 40 ------- 0 3.0 0.0 74 154
+ 3.91312 2 0 ack 40 ------- 0 3.0 0.0 75 155
- 3.91312 2 0 ack 40 ------- 0 3.0 0.0 75 155
- 3.91416 2 3 tcp 1000 ------- 0 0.0 3.0 83 163
+ 3.91416 2 3 tcp 1000 ------- 0 0.0 3.0 84 164
r 3.91816 2 0 ack 40 ------- 0 3.0 0.0 75 155
+ 3.92312 2 0 ack 40 ------- 0 3.0 0.0 76 156
- 3.92312 2 0 ack 40 ------- 0 3.0 0.0 76 156
- 3.92416 2 3 tcp 1000 ------- 0 0.0 3.0 84 164
+ 3.92416 2 3 tcp 1000 ------- 0 0.0 3.0 85 165
r 3.92816 2 0 ack 40 ------- 0 3.0 0.0 76 156
+ 3.93312 2 0 ack 40 ------- 0 3.0 0.0 77 157
- 3.93312 2 0 ack 40 ------- 0 3.0 0.0 77 157
- 3.93416 2 3 tcp 1000 ------- 0 0.0 3.0 85 165
+ 3.93416 2 3 tcp 1000 ------- 0 0.0 3.0 86 166
r 3.93816 2 0 ack 40 ------- 0 3.0 0.0 77 157
+ 3.94312 2 0 ack 40 ------- 0 3.0 0.0 78 158
- 3.94312 2 0 ack 40 ------- 0 3.0 0.0 78 158
- 3.94416 2 3 tcp 1000 ------- 0 0.0 3.0 86 166
+ 3.94416 2 3 tcp 1000 ------- 0 0.0 3.0 87 167
r 3.94816 2 0 ack 40 ------- 0 3.0 0.0 78 158
- 3.95416 2 3 tcp 1000 ------- 0 0.0 3.0 87 167
+ 3.95416 2 3 tcp 1000 ------- 0 0.0 3.0 88 168
- 3.96416 2 3 tcp 1000 ------- 0 0.0 3.0 88 168
r 3.98416 2 3 tcp 1000 ------- 0 0.0 3.0 79 159
r 3.99416 2 3 tcp 1000 ------- 0 0.0 3.0 80 160
r 4.00416 2 3 tcp 1000 ------- 0 0.0 3.0 81 161
r 4.01416 2 3 tcp 1000 ------- 0 0.0 3.0 82 162
r 4.02416 2 3 tcp 1000 ------- 0 0.0 3.0 83 163
r 4.03416 2 3 tcp 1000 ------- 0 0.0 3.0 84 164
r 4.04416 2 3 tcp 1000 ------- 0 0.0 3.0 85 165
r 4.05416 2 3 tcp 1000 ------- 0 0.0 3.0 86 166
r 4.06416 2 3 tcp 1000 ------- 0 0.0 3.0 87 167
r 4.07416 2 3 tcp 1000 ------- 0 0.0 3.0 88 168
+ 4.08456 2 0 ack 40 ------- 0 3.0 0.0 79 169
- 4.08456 2 0 ack 40 ------- 0 3.0 0.0 79 169
r 4.0896 2 0 ack 40 ------- 0 3.0 0.0 79 169
+ 4.09456 2 0 ack 40 ------- 0 3.0 0.0 80 170
- 4.09456 2 0 ack 40 ------- 0 3.0 0.0 80 170
+ 4.0956 2 3 tcp 1000 ------- 0 0.0 3.0 89 179
- 4.0956 2 3 tcp 1000 ------- 0 0.0 3.0 89 179
r 4.0996 2 0 ack 40 ------- 0 3.0 0.0 80 170
+ 4.10456 2 0 ack 40 ------- 0 3.0 0.0 81 171
- 4.10456 2 0 ack 40 ------- 0 3.0 0.0 81 171
+ 4.1056 2 3 tcp 1000 ------- 0 0.0 3.0 90 180
- 4.1056 2 3 tcp 1000 ------- 0 0.0 3.0 90 180
+ 4.1066 2 3 tcp 1000 ------- 0 0.0 3.0 91 181
r 4.1096 2 0 ack 40 ------- 0 3.0 0.0 81 171
+ 4.11456 2 0 ack 40 ------- 0 3.0 0.0 82 172
- 4.11456 2 0 ack 40 ------- 0 3.0 0.0 82 172
- 4.1156 2 3 tcp 1000 ------- 0 0.0 3.0 91 181
+ 4.1156 2 3 tcp 1000 ------- 0 0.0 3.0 92 182
r 4.1196 2 0 ack 40 ------- 0 3.0 0.0 82 172
+ 4.12456 2 0 ack 40 ------- 0 3.0 0.0 83 173
- 4.12456 2 0 ack 40 ------- 0 3.0 0.0 83 173
- 4.1256 2 3 tcp 1000 ------- 0 0.0 3.0 92 182
+ 4.1256 2 3 tcp 1000 ------- 0 0.0 3.0 93 183
r 4.1296 2 0 ack 40 ------- 0 3.0 0.0 83 173
+ 4.13456 2 0 ack 40 ------- 0 3.0 0.0 84 174
- 4.13456 2 0 ack 40 ------- 0 3.0 0.0 84 174
- 4.1356 2 3 tcp 1000 ------- 0 0.0 3.0 93 183
+ 4.1356 2 3 tcp 1000 ------- 0 0.0 3.0 94 184
r 4.1396 2 0 ack 40 ------- 0 3.0 0.0 84 174
+ 4.14456 2 0 ack 40 ------- 0 3.0 0.0 85 175
- 4.14456 2 0 ack 40 ------- 0 3.0 0.0 85 175
- 4.1456 2 3 tcp 1000 ------- 0 0.0 3.0 94 184
+ 4.1456 2 3 tcp 1000 ------- 0 0.0 3.0 95 185
r 4.1496 2 0 ack 40 ------- 0 3.0 0.0 85 175
+ 4.15456 2 0 ack 40 ------- 0 3.0 0.0 86 176
- 4.15456 2 0 ack 40 ------- 0 3.0 0.0 86 176
- 4.1556 2 3 tcp 1000 ------- 0 0.0 3.0 95 185
+ 4.1556 2 3 tcp 1000 ------- 0 0.0 3.0 96 186
r 4.1596 2 0 ack 40 ------- 0 3.0 0.0 86 176
+ 4.16456 2 0 ack 40 ------- 0 3.0 0.0 87 177
- 4.16456 2 0 ack 40 ------- 0 3.0 0.0 87 177
- 4.1656 2 3 tcp 1000 ------- 0 0.0 3.0 96 186
+ 4.1656 2 3 tcp 1000 ------- 0 0.0 3.0 97 187
r 4.1696 2 0 ack 40 ------- 0 3.0 0.0 87 177
+ 4.17456 2 0 ack 40 ------- 0 3.0 0.0 88 178
- 4.17456 2 0 ack 40 ------- 0 3.0 0.0 88 178
- 4.1756 2 3 tcp 1000 ------- 0 0.0 3.0 97 187
+ 4.1756 2 3 tcp 1000 ------- 0 0.0 3.0 98 188
r 4.1796 2 0 ack 40 ------- 0 3.0 0.0 88 178
- 4.1856 2 3 tcp 1000 ------- 0 0.0 3.0 98 188
+ 4.1856 2 3 tcp 1000 ------- 0 0.0 3.0 99 189
- 4.1956 2 3 tcp 1000 ------- 0 0.0 3.0 99 189
r 4.2056 2 3 tcp 1000 ------- 0 0.0 3.0 89 179
r 4.2156 2 3 tcp 1000 ------- 0 0.0 3.0 90 180
r 4.2256 2 3 tcp 1000 ------- 0 0.0 3.0 91 181
r 4.2356 2 3 tcp 1000 ------- 0 0.0 3.0 92 182
r 4.2456 2 3 tcp 1000 ------- 0 0.0 3.0 93 183
r 4.2556 2 3 tcp 1000 ------- 0 0.0 3.0 94 184
r 4.2656 2 3 tcp 1000 ------- 0 0.0 3.0 95 185
r 4.2756 2 3 tcp 1000 ------- 0 0.0 3.0 96 186
r 4.2856 2 3 tcp 1000 ------- 0 0.0 3.0 97 187
r 4.2956 2 3 tcp 1000 ------- 0 0.0 3.0 98 188
r 4.3056 2 3 tcp 1000 ------- 0 0.0 3.0 99 189
+ 4.306 2 0 ack 40 ------- 0 3.0 0.0 89 190
- 4.306 2 0 ack 40 ------- 0 3.0 0.0 89 190
r 4.31104 2 0 ack 40 ------- 0 3.0 0.0 89 190
+ 4.316 2 0 ack 40 ------- 0 3.0 0.0 90 191
- 4.316 2 0 ack 40 ------- 0 3.0 0.0 90 191
+ 4.31704 2 3 tcp 1000 ------- 0 0.0 3.0 100 201
- 4.31704 2 3 tcp 1000 ------- 0 0.0 3.0 100 201
r 4.32104 2 0 ack 40 ------- 0 3.0 0.0 90 191
+ 4.326 2 0 ack 40 ------- 0 3.0 0.0 91 192
- 4.326 2 0 ack 40 ------- 0 3.0 0.0 91 192
+ 4.32704 2 3 tcp 1000 ------- 0 0.0 3.0 101 202
- 4.32704 2 3 tcp 1000 ------- 0 0.0 3.0 101 202
r 4.33104 2 0 ack 40 ------- 0 3.0 0.0 91 192
+ 4.336 2 0 ack 40 ------- 0 3.0 0.0 92 193
- 4.336 2 0 ack 40 ------- 0 3.0 0.0 92 193
+ 4.33704 2 3 tcp 1000 ------- 0 0.0 3.0 102 203
- 4.33704 2 3 tcp 1000 ------- 0 0.0 3.0 102 203
r 4.34104 2 0 ack 40 ------- 0 3.0 0.0 92 193
+ 4.346 2 0 ack 40 ------- 0 3.0 0.0 93 194
- 4.346 2 0 ack 40 ------- 0 3.0 0.0 93 194
+ 4.34704 2 3 tcp 1000 ------- 0 0.0 3.0 103 204
- 4.34704 2 3 tcp 1000 ------- 0 0.0 3.0 103 204
+ 4.34804 2 3 tcp 1000 ------- 0 0.0 3.0 104 205
r 4.35104 2 0 ack 40 ------- 0 3.0 0.0 93 194
+ 4.356 2 0 ack 40 ------- 0 3.0 0.0 94 195
- 4.356 2 0 ack 40 ------- 0 3.0 0.0 94 195
- 4.35704 2 3 tcp 1000 ------- 0 0.0 3.0 104 205
+ 4.35704 2 3 tcp 1000 ------- 0 0.0 3.0 105 206
r 4.36104 2 0 ack 40 ------- 0 3.0 0.0 94 195
+ 4.366 2 0 ack 40 ------- 0 3.0 0.0 95 196
- 4.366 2 0 ack 40 ------- 0 3.0 0.0 95 196
- 4.36704 2 3 tcp 1000 ------- 0 0.0 3.0 105 206
+ 4.36704 2 3 tcp 1000 ------- 0 0.0 3.0 106 207
r 4.37104 2 0 ack 40 ------- 0 3.0 0.0 95 196
+ 4.376 2 0 ack 40 ------- 0 3.0 0.0 96 197
- 4.376 2 0 ack 40 ------- 0 3.0 0.0 96 197
- 4.37704 2 3 tcp 1000 ------- 0 0.0 3.0 106 207
+ 4.37704 2 3 tcp 1000 ------- 0 0.0 3.0 107 208
r 4.38104 2 0 ack 40 ------- 0 3.0 0.0 96 197
+ 4.386 2 0 ack 40 ------- 0 3.0 0.0 97 198
- 4.386 2 0 ack 40 ------- 0 3.0 0.0 97 198
- 4.38704 2 3 tcp 1000 ------- 0 0.0 3.0 107 208
+ 4.38704 2 3 tcp 1000 ------- 0 0.0 3.0 108 209
r 4.39104 2 0 ack 40 ------- 0 3.0 0.0 97 198
+ 4.396 2 0 ack 40 ------- 0 3.0 0.0 98 199
- 4.396 2 0 ack 40 ------- 0 3.0 0.0 98 199
- 4.39704 2 3 tcp 1000 ------- 0 0.0 3.0 108 209
+ 4.39704 2 3 tcp 1000 ------- 0 0.0 3.0 109 210
r 4.40104 2 0 ack 40 ------- 0 3.0 0.0 98 199
+ 4.406 2 0 ack 40 ------- 0 3.0 0.0 99 200
- 4.406 2 0 ack 40 ------- 0 3.0 0.0 99 200
- 4.40704 2 3 tcp 1000 ------- 0 0.0 3.0 109 210
+ 4.40704 2 3 tcp 1000 ------- 0 0.0 3.0 110 211
r 4.41104 2 0 ack 40 ------- 0 3.0 0.0 99 200
- 4.41704 2 3 tcp 1000 ------- 0 0.0 3.0 110 211
+ 4.41704 2 3 tcp 1000 ------- 0 0.0 3.0 111 212
- 4.42704 2 3 tcp 1000 ------- 0 0.0 3.0 111 212
r 4.42704 2 3 tcp 1000 ------- 0 0.0 3.0 100 201
r 4.43704 2 3 tcp 1000 ------- 0 0.0 3.0 101 202
r 4.44704 2 3 tcp 1000 ------- 0 0.0 3.0 102 203
r 4.45704 2 3 tcp 1000 ------- 0 0.0 3.0 103 204
r 4.46704 2 3 tcp 1000 ------- 0 0.0 3.0 104 205
r 4.47704 2 3 tcp 1000 ------- 0 0.0 3.0 105 206
r 4.48704 2 3 tcp 1000 ------- 0 0.0 3.0 106 207
r 4.49704 2 3 tcp 1000 ------- 0 0.0 3.0 107 208
r 4.50704 2 3 tcp 1000 ------- 0 0.0 3.0 108 209
r 4.51704 2 3 tcp 1000 ------- 0 0.0 3.0 109 210
r 4.52704 2 3 tcp 1000 ------- 0 0.0 3.0 110 211
+ 4.52744 2 0 ack 40 ------- 0 3.0 0.0 100 213
- 4.52744 2 0 ack 40 ------- 0 3.0 0.0 100 213
r 4.53248 2 0 ack 40 ------- 0 3.0 0.0 100 213
r 4.53704 2 3 tcp 1000 ------- 0 0.0 3.0 111 212
+ 4.53744 2 0 ack 40 ------- 0 3.0 0.0 101 214
- 4.53744 2 0 ack 40 ------- 0 3.0 0.0 101 214
+ 4.53848 2 3 tcp 1000 ------- 0 0.0 3.0 112 224
- 4.53848 2 3 tcp 1000 ------- 0 0.0 3.0 112 224
r 4.54248 2 0 ack 40 ------- 0 3.0 0.0 101 214
+ 4.54744 2 0 ack 40 ------- 0 3.0 0.0 102 215
- 4.54744 2 0 ack 40 ------- 0 3.0 0.0 102 215