v testName tahoe1Bytes
+ 0.00504 2 3 tcp 40 ------- 0 0.0 3.0 0 0
- 0.00504 2 3 tcp 40 ------- 0 0.0 3.0 0 0
r 0.10544 2 3 tcp 40 ------- 0 0.0 3.0 0 0
+ 0.20584 2 0 ack 40 ------- 0 3.0 0.0 0 1
- 0.20584 2 0 ack 40 ------- 0 3.0 0.0 0 1
r 0.21088 2 0 ack 40 ------- 0 3.0 0.0 0 1
+ 0.21688 2 3 tcp 1000 ------- 0 0.0 3.0 1 2
- 0.21688 2 3 tcp 1000 ------- 0 0.0 3.0 1 2
+ 0.21788 2 3 tcp 1000 ------- 0 0.0 3.0 2 3
- 0.22688 2 3 tcp 1000 ------- 0 0.0 3.0 2 3
r 0.32688 2 3 tcp 1000 ------- 0 0.0 3.0 1 2
r 0.33688 2 3 tcp 1000 ------- 0 0.0 3.0 2 3
+ 0.42728 2 0 ack 40 ------- 0 3.0 0.0 1 4
- 0.42728 2 0 ack 40 ------- 0 3.0 0.0 1 4
r 0.43232 2 0 ack 40 ------- 0 3.0 0.0 1 4
+ 0.43728 2 0 ack 40 ------- 0 3.0 0.0 2 5
- 0.43728 2 0 ack 40 ------- 0 3.0 0.0 2 5
+ 0.43832 2 3 tcp 1000 ------- 0 0.0 3.0 3 6
- 0.43832 2 3 tcp 1000 ------- 0 0.0 3.0 3 6
+ 0.43932 2 3 tcp 1000 ------- 0 0.0 3.0 4 7
r 0.44232 2 0 ack 40 ------- 0 3.0 0.0 2 5
- 0.44832 2 3 tcp 1000 ------- 0 0.0 3.0 4 7
+ 0.44832 2 3 tcp 1000 ------- 0 0.0 3.0 5 8
+ 0.44932 2 3 tcp 1000 ------- 0 0.0 3.0 6 9
- 0.45832 2 3 tcp 1000 ------- 0 0.0 3.0 5 8
- 0.46832 2 3 tcp 1000 ------- 0 0.0 3.0 6 9
r 0.54832 2 3 tcp 1000 ------- 0 0.0 3.0 3 6
r 0.55832 2 3 tcp 1000 ------- 0 0.0 3.0 4 7
r 0.56832 2 3 tcp 1000 ------- 0 0.0 3.0 5 8
r 0.57832 2 3 tcp 1000 ------- 0 0.0 3.0 6 9
+ 0.64872 2 0 ack 40 ------- 0 3.0 0.0 3 10
- 0.64872 2 0 ack 40 ------- 0 3.0 0.0 3 10
r 0.65376 2 0 ack 40 ------- 0 3.0 0.0 3 10
+ 0.65872 2 0 ack 40 ------- 0 3.0 0.0 4 11
- 0.65872 2 0 ack 40 ------- 0 3.0 0.0 4 11
+ 0.65976 2 3 tcp 1000 ------- 0 0.0 3.0 7 14
- 0.65976 2 3 tcp 1000 ------- 0 0.0 3.0 7 14
+ 0.66076 2 3 tcp 1000 ------- 0 0.0 3.0 8 15
r 0.66376 2 0 ack 40 ------- 0 3.0 0.0 4 11
+ 0.66872 2 0 ack 40 ------- 0 3.0 0.0 5 12
- 0.66872 2 0 ack 40 ------- 0 3.0 0.0 5 12
- 0.66976 2 3 tcp 1000 ------- 0 0.0 3.0 8 15
+ 0.66976 2 3 tcp 1000 ------- 0 0.0 3.0 9 16
+ 0.67076 2 3 tcp 1000 ------- 0 0.0 3.0 10 17
r 0.67376 2 0 ack 40 ------- 0 3.0 0.0 5 12
+ 0.67872 2 0 ack 40 ------- 0 3.0 0.0 6 13
- 0.67872 2 0 ack 40 ------- 0 3.0 0.0 6 13
- 0.67976 2 3 tcp 1000 ------- 0 0.0 3.0 9 16
+ 0.67976 2 3 tcp 1000 ------- 0 0.0 3.0 11 18
+ 0.68076 2 3 tcp 1000 ------- 0 0.0 3.0 12 19
r 0.68376 2 0 ack 40 ------- 0 3.0 0.0 6 13
- 0.68976 2 3 tcp 1000 ------- 0 0.0 3.0 10 17
+ 0.68976 2 3 tcp 1000 ------- 0 0.0 3.0 13 20
+ 0.69076 2 3 tcp 1000 ------- 0 0.0 3.0 14 21
- 0.69976 2 3 tcp 1000 ------- 0 0.0 3.0 11 18
- 0.70976 2 3 tcp 1000 ------- 0 0.0 3.0 12 19
- 0.71976 2 3 tcp 1000 ------- 0 0.0 3.0 13 20
- 0.72976 2 3 tcp 1000 ------- 0 0.0 3.0 14 21
r 0.76976 2 3 tcp 1000 ------- 0 0.0 3.0 7 14
r 0.77976 2 3 tcp 1000 ------- 0 0.0 3.0 8 15
r 0.78976 2 3 tcp 1000 ------- 0 0.0 3.0 9 16
r 0.79976 2 3 tcp 1000 ------- 0 0.0 3.0 10 17
r 0.80976 2 3 tcp 1000 ------- 0 0.0 3.0 11 18
r 0.81976 2 3 tcp 1000 ------- 0 0.0 3.0 12 19
r 0.82976 2 3 tcp 1000 ------- 0 0.0 3.0 13 20
r 0.83976 2 3 tcp 1000 ------- 0 0.0 3.0 14 21
+ 0.87016 2 0 ack 40 ------- 0 3.0 0.0 7 22
- 0.87016 2 0 ack 40 ------- 0 3.0 0.0 7 22
r 0.8752 2 0 ack 40 ------- 0 3.0 0.0 7 22
+ 0.88016 2 0 ack 40 ------- 0 3.0 0.0 8 23
- 0.88016 2 0 ack 40 ------- 0 3.0 0.0 8 23
+ 0.8812 2 3 tcp 1000 ------- 0 0.0 3.0 15 30
- 0.8812 2 3 tcp 1000 ------- 0 0.0 3.0 15 30
+ 0.8822 2 3 tcp 1000 ------- 0 0.0 3.0 16 31
r 0.8852 2 0 ack 40 ------- 0 3.0 0.0 8 23
+ 0.89016 2 0 ack 40 ------- 0 3.0 0.0 9 24
- 0.89016 2 0 ack 40 ------- 0 3.0 0.0 9 24
- 0.8912 2 3 tcp 1000 ------- 0 0.0 3.0 16 31
+ 0.8912 2 3 tcp 1000 ------- 0 0.0 3.0 17 32
+ 0.8922 2 3 tcp 1000 ------- 0 0.0 3.0 18 33
r 0.8952 2 0 ack 40 ------- 0 3.0 0.0 9 24
+ 0.90016 2 0 ack 40 ------- 0 3.0 0.0 10 25
- 0.90016 2 0 ack 40 ------- 0 3.0 0.0 10 25
- 0.9012 2 3 tcp 1000 ------- 0 0.0 3.0 17 32
+ 0.9012 2 3 tcp 1000 ------- 0 0.0 3.0 19 34
+ 0.9022 2 3 tcp 1000 ------- 0 0.0 3.0 20 35
r 0.9052 2 0 ack 40 ------- 0 3.0 0.0 10 25
+ 0.91016 2 0 ack 40 ------- 0 3.0 0.0 11 26
- 0.91016 2 0 ack 40 ------- 0 3.0 0.0 11 26
- 0.9112 2 3 tcp 1000 ------- 0 0.0 3.0 18 33
+ 0.9112 2 3 tcp 1000 ------- 0 0.0 3.0 21 36
+ 0.9122 2 3 tcp 1000 ------- 0 0.0 3.0 22 37
r 0.9152 2 0 ack 40 ------- 0 3.0 0.0 11 26
+ 0.92016 2 0 ack 40 ------- 0 3.0 0.0 12 27
- 0.92016 2 0 ack 40 ------- 0 3.0 0.0 12 27
- 0.9212 2 3 tcp 1000 ------- 0 0.0 3.0 19 34
+ 0.9212 2 3 tcp 1000 ------- 0 0.0 3.0 23 38
+ 0.9222 2 3 tcp 1000 ------- 0 0.0 3.0 24 39
r 0.9252 2 0 ack 40 ------- 0 3.0 0.0 12 27
+ 0.93016 2 0 ack 40 ------- 0 3.0 0.0 13 28
- 0.93016 2 0 ack 40 ------- 0 3.0 0.0 13 28
- 0.9312 2 3 tcp 1000 ------- 0 0.0 3.0 20 35
+ 0.9312 2 3 tcp 1000 ------- 0 0.0 3.0 25 40
+ 0.9322 2 3 tcp 1000 ------- 0 0.0 3.0 26 41
d 0.9322 2 3 tcp 1000 ------- 0 0.0 3.0 26 41
r 0.9352 2 0 ack 40 ------- 0 3.0 0.0 13 28
+ 0.94016 2 0 ack 40 ------- 0 3.0 0.0 14 29
- 0.94016 2 0 ack 40 ------- 0 3.0 0.0 14 29
- 0.9412 2 3 tcp 1000 ------- 0 0.0 3.0 21 36
+ 0.9412 2 3 tcp 1000 ------- 0 0.0 3.0 27 42
+ 0.9422 2 3 tcp 1000 ------- 0 0.0 3.0 28 43
d 0.9422 2 3 tcp 1000 ------- 0 0.0 3.0 28 43
r 0.9452 2 0 ack 40 ------- 0 3.0 0.0 14 29
- 0.9512 2 3 tcp 1000 ------- 0 0.0 3.0 22 37
+ 0.9512 2 3 tcp 1000 ------- 0 0.0 3.0 29 44
+ 0.9522 2 3 tcp 1000 ------- 0 0.0 3.0 30 45
d 0.9522 2 3 tcp 1000 ------- 0 0.0 3.0 30 45
- 0.9612 2 3 tcp 1000 ------- 0 0.0 3.0 23 38
- 0.9712 2 3 tcp 1000 ------- 0 0.0 3.0 24 39
- 0.9812 2 3 tcp 1000 ------- 0 0.0 3.0 25 40
r 0.9912 2 3 tcp 1000 ------- 0 0.0 3.0 15 30
- 0.9912 2 3 tcp 1000 ------- 0 0.0 3.0 27 42
r 1.0012 2 3 tcp 1000 ------- 0 0.0 3.0 16 31
- 1.0012 2 3 tcp 1000 ------- 0 0.0 3.0 29 44
r 1.0112 2 3 tcp 1000 ------- 0 0.0 3.0 17 32
r 1.0212 2 3 tcp 1000 ------- 0 0.0 3.0 18 33
r 1.0312 2 3 tcp 1000 ------- 0 0.0 3.0 19 34
r 1.0412 2 3 tcp 1000 ------- 0 0.0 3.0 20 35
r 1.0512 2 3 tcp 1000 ------- 0 0.0 3.0 21 36
r 1.0612 2 3 tcp 1000 ------- 0 0.0 3.0 22 37
r 1.0712 2 3 tcp 1000 ------- 0 0.0 3.0 23 38
r 1.0812 2 3 tcp 1000 ------- 0 0.0 3.0 24 39
r 1.0912 2 3 tcp 1000 ------- 0 0.0 3.0 25 40
+ 1.0916 2 0 ack 40 ------- 0 3.0 0.0 15 46
- 1.0916 2 0 ack 40 ------- 0 3.0 0.0 15 46
r 1.09664 2 0 ack 40 ------- 0 3.0 0.0 15 46
r 1.1012 2 3 tcp 1000 ------- 0 0.0 3.0 27 42
+ 1.1016 2 0 ack 40 ------- 0 3.0 0.0 16 47
- 1.1016 2 0 ack 40 ------- 0 3.0 0.0 16 47
+ 1.10264 2 3 tcp 1000 ------- 0 0.0 3.0 31 57
- 1.10264 2 3 tcp 1000 ------- 0 0.0 3.0 31 57
+ 1.10364 2 3 tcp 1000 ------- 0 0.0 3.0 32 58
r 1.10664 2 0 ack 40 ------- 0 3.0 0.0 16 47
r 1.1112 2 3 tcp 1000 ------- 0 0.0 3.0 29 44
+ 1.1116 2 0 ack 40 ------- 0 3.0 0.0 17 48
- 1.1116 2 0 ack 40 ------- 0 3.0 0.0 17 48
- 1.11264 2 3 tcp 1000 ------- 0 0.0 3.0 32 58
+ 1.11264 2 3 tcp 1000 ------- 0 0.0 3.0 33 60
+ 1.11364 2 3 tcp 1000 ------- 0 0.0 3.0 34 61
r 1.11664 2 0 ack 40 ------- 0 3.0 0.0 17 48
+ 1.1216 2 0 ack 40 ------- 0 3.0 0.0 18 49
- 1.1216 2 0 ack 40 ------- 0 3.0 0.0 18 49
- 1.12264 2 3 tcp 1000 ------- 0 0.0 3.0 33 60
+ 1.12264 2 3 tcp 1000 ------- 0 0.0 3.0 35 63
+ 1.12364 2 3 tcp 1000 ------- 0 0.0 3.0 36 64
r 1.12664 2 0 ack 40 ------- 0 3.0 0.0 18 49
+ 1.1316 2 0 ack 40 ------- 0 3.0 0.0 19 50
- 1.1316 2 0 ack 40 ------- 0 3.0 0.0 19 50
- 1.13264 2 3 tcp 1000 ------- 0 0.0 3.0 34 61
+ 1.13264 2 3 tcp 1000 ------- 0 0.0 3.0 37 65
+ 1.13364 2 3 tcp 1000 ------- 0 0.0 3.0 38 66
r 1.13664 2 0 ack 40 ------- 0 3.0 0.0 19 50
+ 1.1416 2 0 ack 40 ------- 0 3.0 0.0 20 51
- 1.1416 2 0 ack 40 ------- 0 3.0 0.0 20 51
- 1.14264 2 3 tcp 1000 ------- 0 0.0 3.0 35 63
+ 1.14264 2 3 tcp 1000 ------- 0 0.0 3.0 39 67
+ 1.14364 2 3 tcp 1000 ------- 0 0.0 3.0 40 68
r 1.14664 2 0 ack 40 ------- 0 3.0 0.0 20 51
+ 1.1516 2 0 ack 40 ------- 0 3.0 0.0 21 52
- 1.1516 2 0 ack 40 ------- 0 3.0 0.0 21 52
- 1.15264 2 3 tcp 1000 ------- 0 0.0 3.0 36 64
+ 1.15264 2 3 tcp 1000 ------- 0 0.0 3.0 41 69
+ 1.15364 2 3 tcp 1000 ------- 0 0.0 3.0 42 70
d 1.15364 2 3 tcp 1000 ------- 0 0.0 3.0 42 70
r 1.15664 2 0 ack 40 ------- 0 3.0 0.0 21 52
+ 1.1616 2 0 ack 40 ------- 0 3.0 0.0 22 53
- 1.1616 2 0 ack 40 ------- 0 3.0 0.0 22 53
- 1.16264 2 3 tcp 1000 ------- 0 0.0 3.0 37 65
+ 1.16264 2 3 tcp 1000 ------- 0 0.0 3.0 43 71
+ 1.16364 2 3 tcp 1000 ------- 0 0.0 3.0 44 72
d 1.16364 2 3 tcp 1000 ------- 0 0.0 3.0 44 72
r 1.16664 2 0 ack 40 ------- 0 3.0 0.0 22 53
+ 1.1716 2 0 ack 40 ------- 0 3.0 0.0 23 54
- 1.1716 2 0 ack 40 ------- 0 3.0 0.0 23 54
- 1.17264 2 3 tcp 1000 ------- 0 0.0 3.0 38 66
+ 1.17264 2 3 tcp 1000 ------- 0 0.0 3.0 45 73
+ 1.17364 2 3 tcp 1000 ------- 0 0.0 3.0 46 74
d 1.17364 2 3 tcp 1000 ------- 0 0.0 3.0 46 74
r 1.17664 2 0 ack 40 ------- 0 3.0 0.0 23 54
+ 1.1816 2 0 ack 40 ------- 0 3.0 0.0 24 55
- 1.1816 2 0 ack 40 ------- 0 3.0 0.0 24 55
- 1.18264 2 3 tcp 1000 ------- 0 0.0 3.0 39 67
+ 1.18264 2 3 tcp 1000 ------- 0 0.0 3.0 47 75
+ 1.18364 2 3 tcp 1000 ------- 0 0.0 3.0 48 76
d 1.18364 2 3 tcp 1000 ------- 0 0.0 3.0 48 76
r 1.18664 2 0 ack 40 ------- 0 3.0 0.0 24 55
+ 1.1916 2 0 ack 40 ------- 0 3.0 0.0 25 56
- 1.1916 2 0 ack 40 ------- 0 3.0 0.0 25 56
- 1.19264 2 3 tcp 1000 ------- 0 0.0 3.0 40 68
+ 1.19264 2 3 tcp 1000 ------- 0 0.0 3.0 49 77
+ 1.19364 2 3 tcp 1000 ------- 0 0.0 3.0 50 78
d 1.19364 2 3 tcp 1000 ------- 0 0.0 3.0 50 78
r 1.19664 2 0 ack 40 ------- 0 3.0 0.0 25 56
+ 1.2016 2 0 ack 40 ------- 0 3.0 0.0 25 59
- 1.2016 2 0 ack 40 ------- 0 3.0 0.0 25 59
- 1.20264 2 3 tcp 1000 ------- 0 0.0 3.0 41 69
+ 1.20264 2 3 tcp 1000 ------- 0 0.0 3.0 51 79
+ 1.20364 2 3 tcp 1000 ------- 0 0.0 3.0 52 80
d 1.20364 2 3 tcp 1000 ------- 0 0.0 3.0 52 80
r 1.20664 2 0 ack 40 ------- 0 3.0 0.0 25 59
+ 1.2116 2 0 ack 40 ------- 0 3.0 0.0 25 62
- 1.2116 2 0 ack 40 ------- 0 3.0 0.0 25 62
r 1.21264 2 3 tcp 1000 ------- 0 0.0 3.0 31 57
- 1.21264 2 3 tcp 1000 ------- 0 0.0 3.0 43 71
r 1.21664 2 0 ack 40 ------- 0 3.0 0.0 25 62
r 1.22264 2 3 tcp 1000 ------- 0 0.0 3.0 32 58
- 1.22264 2 3 tcp 1000 ------- 0 0.0 3.0 45 73
r 1.23264 2 3 tcp 1000 ------- 0 0.0 3.0 33 60
- 1.23264 2 3 tcp 1000 ------- 0 0.0 3.0 47 75
r 1.24264 2 3 tcp 1000 ------- 0 0.0 3.0 34 61
- 1.24264 2 3 tcp 1000 ------- 0 0.0 3.0 49 77
r 1.25264 2 3 tcp 1000 ------- 0 0.0 3.0 35 63
- 1.25264 2 3 tcp 1000 ------- 0 0.0 3.0 51 79
r 1.26264 2 3 tcp 1000 ------- 0 0.0 3.0 36 64
r 1.27264 2 3 tcp 1000 ------- 0 0.0 3.0 37 65
r 1.28264 2 3 tcp 1000 ------- 0 0.0 3.0 38 66
r 1.29264 2 3 tcp 1000 ------- 0 0.0 3.0 39 67
r 1.30264 2 3 tcp 1000 ------- 0 0.0 3.0 40 68
r 1.31264 2 3 tcp 1000 ------- 0 0.0 3.0 41 69
+ 1.31304 2 0 ack 40 ------- 0 3.0 0.0 25 81
- 1.31304 2 0 ack 40 ------- 0 3.0 0.0 25 81
r 1.31808 2 0 ack 40 ------- 0 3.0 0.0 25 81
r 1.32264 2 3 tcp 1000 ------- 0 0.0 3.0 43 71
+ 1.32304 2 0 ack 40 ------- 0 3.0 0.0 25 82
- 1.32304 2 0 ack 40 ------- 0 3.0 0.0 25 82
+ 1.32408 2 3 tcp 1000 ---A--- 0 0.0 3.0 26 92
- 1.32408 2 3 tcp 1000 ---A--- 0 0.0 3.0 26 92
r 1.32808 2 0 ack 40 ------- 0 3.0 0.0 25 82
r 1.33264 2 3 tcp 1000 ------- 0 0.0 3.0 45 73
+ 1.33304 2 0 ack 40 ------- 0 3.0 0.0 25 83
- 1.33304 2 0 ack 40 ------- 0 3.0 0.0 25 83
r 1.33808 2 0 ack 40 ------- 0 3.0 0.0 25 83
r 1.34264 2 3 tcp 1000 ------- 0 0.0 3.0 47 75
+ 1.34304 2 0 ack 40 ------- 0 3.0 0.0 25 84
- 1.34304 2 0 ack 40 ------- 0 3.0 0.0 25 84
r 1.34808 2 0 ack 40 ------- 0 3.0 0.0 25 84
r 1.35264 2 3 tcp 1000 ------- 0 0.0 3.0 49 77
+ 1.35304 2 0 ack 40 ------- 0 3.0 0.0 25 85
- 1.35304 2 0 ack 40 ------- 0 3.0 0.0 25 85
r 1.35808 2 0 ack 40 ------- 0 3.0 0.0 25 85
r 1.36264 2 3 tcp 1000 ------- 0 0.0 3.0 51 79
+ 1.36304 2 0 ack 40 ------- 0 3.0 0.0 25 86
- 1.36304 2 0 ack 40 ------- 0 3.0 0.0 25 86
r 1.36808 2 0 ack 40 ------- 0 3.0 0.0 25 86
+ 1.37304 2 0 ack 40 ------- 0 3.0 0.0 25 87
- 1.37304 2 0 ack 40 ------- 0 3.0 0.0 25 87
r 1.37808 2 0 ack 40 ------- 0 3.0 0.0 25 87
+ 1.38304 2 0 ack 40 ------- 0 3.0 0.0 25 88
- 1.38304 2 0 ack 40 ------- 0 3.0 0.0 25 88
r 1.38808 2 0 ack 40 ------- 0 3.0 0.0 25 88
+ 1.39304 2 0 ack 40 ------- 0 3.0 0.0 25 89
- 1.39304 2 0 ack 40 ------- 0 3.0 0.0 25 89
r 1.39808 2 0 ack 40 ------- 0 3.0 0.0 25 89
+ 1.40304 2 0 ack 40 ------- 0 3.0 0.0 25 90
- 1.40304 2 0 ack 40 ------- 0 3.0 0.0 25 90
r 1.40808 2 0 ack 40 ------- 0 3.0 0.0 25 90
+ 1.41304 2 0 ack 40 ------- 0 3.0 0.0 25 91
- 1.41304 2 0 ack 40 ------- 0 3.0 0.0 25 91
r 1.41808 2 0 ack 40 ------- 0 3.0 0.0 25 91
+ 1.42304 2 0 ack 40 ------- 0 3.0 0.0 25 93
- 1.42304 2 0 ack 40 ------- 0 3.0 0.0 25 93
r 1.42808 2 0 ack 40 ------- 0 3.0 0.0 25 93
+ 1.43304 2 0 ack 40 ------- 0 3.0 0.0 25 94
- 1.43304 2 0 ack 40 ------- 0 3.0 0.0 25 94
r 1.43408 2 3 tcp 1000 ---A--- 0 0.0 3.0 26 92
r 1.43808 2 0 ack 40 ------- 0 3.0 0.0 25 94
+ 1.44304 2 0 ack 40 ------- 0 3.0 0.0 25 95
- 1.44304 2 0 ack 40 ------- 0 3.0 0.0 25 95
r 1.44808 2 0 ack 40 ------- 0 3.0 0.0 25 95
+ 1.45304 2 0 ack 40 ------- 0 3.0 0.0 25 96
- 1.45304 2 0 ack 40 ------- 0 3.0 0.0 25 96
r 1.45808 2 0 ack 40 ------- 0 3.0 0.0 25 96
+ 1.46304 2 0 ack 40 ------- 0 3.0 0.0 25 97
- 1.46304 2 0 ack 40 ------- 0 3.0 0.0 25 97
r 1.46808 2 0 ack 40 ------- 0 3.0 0.0 25 97
+ 1.53448 2 0 ack 40 ------- 0 3.0 0.0 27 98
- 1.53448 2 0 ack 40 ------- 0 3.0 0.0 27 98
r 1.53952 2 0 ack 40 ------- 0 3.0 0.0 27 98
+ 1.54552 2 3 tcp 1000 ------- 0 0.0 3.0 28 99
- 1.54552 2 3 tcp 1000 ------- 0 0.0 3.0 28 99
+ 1.54652 2 3 tcp 1000 ------- 0 0.0 3.0 29 100
- 1.55552 2 3 tcp 1000 ------- 0 0.0 3.0 29 100
r 1.65552 2 3 tcp 1000 ------- 0 0.0 3.0 28 99
r 1.66552 2 3 tcp 1000 ------- 0 0.0 3.0 29 100
+ 1.75592 2 0 ack 40 ------- 0 3.0 0.0 29 101
- 1.75592 2 0 ack 40 ------- 0 3.0 0.0 29 101
r 1.76096 2 0 ack 40 ------- 0 3.0 0.0 29 101
+ 1.76592 2 0 ack 40 ------- 0 3.0 0.0 29 102
- 1.76592 2 0 ack 40 ------- 0 3.0 0.0 29 102
+ 1.76696 2 3 tcp 1000 ------- 0 0.0 3.0 30 103
- 1.76696 2 3 tcp 1000 ------- 0 0.0 3.0 30 103
+ 1.76796 2 3 tcp 1000 ------- 0 0.0 3.0 31 104
+ 1.76896 2 3 tcp 1000 ------- 0 0.0 3.0 32 105
r 1.77096 2 0 ack 40 ------- 0 3.0 0.0 29 102
- 1.77696 2 3 tcp 1000 ------- 0 0.0 3.0 31 104
- 1.78696 2 3 tcp 1000 ------- 0 0.0 3.0 32 105
r 1.87696 2 3 tcp 1000 ------- 0 0.0 3.0 30 103
r 1.88696 2 3 tcp 1000 ------- 0 0.0 3.0 31 104
r 1.89696 2 3 tcp 1000 ------- 0 0.0 3.0 32 105
+ 1.97736 2 0 ack 40 ------- 0 3.0 0.0 41 106
- 1.97736 2 0 ack 40 ------- 0 3.0 0.0 41 106
r 1.9824 2 0 ack 40 ------- 0 3.0 0.0 41 106
+ 1.98736 2 0 ack 40 ------- 0 3.0 0.0 41 107
- 1.98736 2 0 ack 40 ------- 0 3.0 0.0 41 107
+ 1.9884 2 3 tcp 1000 ------- 0 0.0 3.0 42 109
- 1.9884 2 3 tcp 1000 ------- 0 0.0 3.0 42 109
+ 1.9894 2 3 tcp 1000 ------- 0 0.0 3.0 43 110
+ 1.9904 2 3 tcp 1000 ------- 0 0.0 3.0 44 111
+ 1.9914 2 3 tcp 1000 ------- 0 0.0 3.0 45 112
r 1.9924 2 0 ack 40 ------- 0 3.0 0.0 41 107
+ 1.99736 2 0 ack 40 ------- 0 3.0 0.0 41 108
- 1.99736 2 0 ack 40 ------- 0 3.0 0.0 41 108
- 1.9984 2 3 tcp 1000 ------- 0 0.0 3.0 43 110
r 2.0024 2 0 ack 40 ------- 0 3.0 0.0 41 108
- 2.0084 2 3 tcp 1000 ------- 0 0.0 3.0 44 111
- 2.0184 2 3 tcp 1000 ------- 0 0.0 3.0 45 112
r 2.0984 2 3 tcp 1000 ------- 0 0.0 3.0 42 109
r 2.1084 2 3 tcp 1000 ------- 0 0.0 3.0 43 110
r 2.1184 2 3 tcp 1000 ------- 0 0.0 3.0 44 111
r 2.1284 2 3 tcp 1000 ------- 0 0.0 3.0 45 112
+ 2.1988 2 0 ack 40 ------- 0 3.0 0.0 43 113
- 2.1988 2 0 ack 40 ------- 0 3.0 0.0 43 113
r 2.20384 2 0 ack 40 ------- 0 3.0 0.0 43 113
+ 2.2088 2 0 ack 40 ------- 0 3.0 0.0 43 114
- 2.2088 2 0 ack 40 ------- 0 3.0 0.0 43 114
+ 2.20984 2 3 tcp 1000 ------- 0 0.0 3.0 46 117
- 2.20984 2 3 tcp 1000 ------- 0 0.0 3.0 46 117
+ 2.21084 2 3 tcp 1000 ------- 0 0.0 3.0 47 118
+ 2.21184 2 3 tcp 1000 ------- 0 0.0 3.0 48 119
r 2.21384 2 0 ack 40 ------- 0 3.0 0.0 43 114
+ 2.2188 2 0 ack 40 ------- 0 3.0 0.0 45 115
- 2.2188 2 0 ack 40 ------- 0 3.0 0.0 45 115
- 2.21984 2 3 tcp 1000 ------- 0 0.0 3.0 47 118
r 2.22384 2 0 ack 40 ------- 0 3.0 0.0 45 115
+ 2.2288 2 0 ack 40 ------- 0 3.0 0.0 45 116
- 2.2288 2 0 ack 40 ------- 0 3.0 0.0 45 116
- 2.22984 2 3 tcp 1000 ------- 0 0.0 3.0 48 119
+ 2.22984 2 3 tcp 1000 ------- 0 0.0 3.0 49 120
+ 2.23084 2 3 tcp 1000 ------- 0 0.0 3.0 50 121
+ 2.23184 2 3 tcp 1000 ------- 0 0.0 3.0 51 122
r 2.23384 2 0 ack 40 ------- 0 3.0 0.0 45 116
- 2.23984 2 3 tcp 1000 ------- 0 0.0 3.0 49 120
- 2.24984 2 3 tcp 1000 ------- 0 0.0 3.0 50 121
- 2.25984 2 3 tcp 1000 ------- 0 0.0 3.0 51 122
r 2.31984 2 3 tcp 1000 ------- 0 0.0 3.0 46 117
r 2.32984 2 3 tcp 1000 ------- 0 0.0 3.0 47 118
r 2.33984 2 3 tcp 1000 ------- 0 0.0 3.0 48 119
r 2.34984 2 3 tcp 1000 ------- 0 0.0 3.0 49 120
r 2.35984 2 3 tcp 1000 ------- 0 0.0 3.0 50 121
r 2.36984 2 3 tcp 1000 ------- 0 0.0 3.0 51 122
+ 2.42024 2 0 ack 40 ------- 0 3.0 0.0 47 123
- 2.42024 2 0 ack 40 ------- 0 3.0 0.0 47 123
r 2.42528 2 0 ack 40 ------- 0 3.0 0.0 47 123
+ 2.43024 2 0 ack 40 ------- 0 3.0 0.0 47 124
- 2.43024 2 0 ack 40 ------- 0 3.0 0.0 47 124
+ 2.43128 2 3 tcp 1000 ------- 0 0.0 3.0 52 129
- 2.43128 2 3 tcp 1000 ------- 0 0.0 3.0 52 129
+ 2.43228 2 3 tcp 1000 ------- 0 0.0 3.0 53 130
+ 2.43328 2 3 tcp 1000 ------- 0 0.0 3.0 54 131
r 2.43528 2 0 ack 40 ------- 0 3.0 0.0 47 124
+ 2.44024 2 0 ack 40 ------- 0 3.0 0.0 49 125
- 2.44024 2 0 ack 40 ------- 0 3.0 0.0 49 125
- 2.44128 2 3 tcp 1000 ------- 0 0.0 3.0 53 130
r 2.44528 2 0 ack 40 ------- 0 3.0 0.0 49 125
+ 2.45024 2 0 ack 40 ------- 0 3.0 0.0 49 126
- 2.45024 2 0 ack 40 ------- 0 3.0 0.0 49 126
- 2.45128 2 3 tcp 1000 ------- 0 0.0 3.0 54 131
+ 2.45128 2 3 tcp 1000 ------- 0 0.0 3.0 55 132
+ 2.45228 2 3 tcp 1000 ------- 0 0.0 3.0 56 133
+ 2.45328 2 3 tcp 1000 ------- 0 0.0 3.0 57 134
r 2.45528 2 0 ack 40 ------- 0 3.0 0.0 49 126
+ 2.46024 2 0 ack 40 ------- 0 3.0 0.0 51 127
- 2.46024 2 0 ack 40 ------- 0 3.0 0.0 51 127
- 2.46128 2 3 tcp 1000 ------- 0 0.0 3.0 55 132
r 2.46528 2 0 ack 40 ------- 0 3.0 0.0 51 127
+ 2.47024 2 0 ack 40 ------- 0 3.0 0.0 51 128
- 2.47024 2 0 ack 40 ------- 0 3.0 0.0 51 128
- 2.47128 2 3 tcp 1000 ------- 0 0.0 3.0 56 133
+ 2.47128 2 3 tcp 1000 ------- 0 0.0 3.0 58 135
+ 2.47228 2 3 tcp 1000 ------- 0 0.0 3.0 59 136
+ 2.47328 2 3 tcp 1000 ------- 0 0.0 3.0 60 137
r 2.47528 2 0 ack 40 ------- 0 3.0 0.0 51 128
- 2.48128 2 3 tcp 1000 ------- 0 0.0 3.0 57 134
- 2.49128 2 3 tcp 1000 ------- 0 0.0 3.0 58 135
- 2.50128 2 3 tcp 1000 ------- 0 0.0 3.0 59 136
- 2.51128 2 3 tcp 1000 ------- 0 0.0 3.0 60 137
r 2.54128 2 3 tcp 1000 ------- 0 0.0 3.0 52 129
r 2.55128 2 3 tcp 1000 ------- 0 0.0 3.0 53 130
r 2.56128 2 3 tcp 1000 ------- 0 0.0 3.0 54 131
r 2.57128 2 3 tcp 1000 ------- 0 0.0 3.0 55 132
r 2.58128 2 3 tcp 1000 ------- 0 0.0 3.0 56 133
r 2.59128 2 3 tcp 1000 ------- 0 0.0 3.0 57 134
r 2.60128 2 3 tcp 1000 ------- 0 0.0 3.0 58 135
r 2.61128 2 3 tcp 1000 ------- 0 0.0 3.0 59 136
r 2.62128 2 3 tcp 1000 ------- 0 0.0 3.0 60 137
+ 2.64168 2 0 ack 40 ------- 0 3.0 0.0 52 138
- 2.64168 2 0 ack 40 ------- 0 3.0 0.0 52 138
r 2.64672 2 0 ack 40 ------- 0 3.0 0.0 52 138
+ 2.65168 2 0 ack 40 ------- 0 3.0 0.0 53 139
- 2.65168 2 0 ack 40 ------- 0 3.0 0.0 53 139
+ 2.65272 2 3 tcp 1000 ------- 0 0.0 3.0 61 147
- 2.65272 2 3 tcp 1000 ------- 0 0.0 3.0 61 147
+ 2.65372 2 3 tcp 1000 ------- 0 0.0 3.0 62 148
r 2.65672 2 0 ack 40 ------- 0 3.0 0.0 53 139
+ 2.66168 2 0 ack 40 ------- 0 3.0 0.0 54 140
- 2.66168 2 0 ack 40 ------- 0 3.0 0.0 54 140
- 2.66272 2 3 tcp 1000 ------- 0 0.0 3.0 62 148
+ 2.66272 2 3 tcp 1000 ------- 0 0.0 3.0 63 149
+ 2.66372 2 3 tcp 1000 ------- 0 0.0 3.0 64 150
r 2.66672 2 0 ack 40 ------- 0 3.0 0.0 54 140
+ 2.67168 2 0 ack 40 ------- 0 3.0 0.0 55 141
- 2.67168 2 0 ack 40 ------- 0 3.0 0.0 55 141
- 2.67272 2 3 tcp 1000 ------- 0 0.0 3.0 63 149
+ 2.67272 2 3 tcp 1000 ------- 0 0.0 3.0 65 151
+ 2.67372 2 3 tcp 1000 ------- 0 0.0 3.0 66 152
r 2.67672 2 0 ack 40 ------- 0 3.0 0.0 55 141
+ 2.68168 2 0 ack 40 ------- 0 3.0 0.0 56 142
- 2.68168 2 0 ack 40 ------- 0 3.0 0.0 56 142
- 2.68272 2 3 tcp 1000 ------- 0 0.0 3.0 64 150
+ 2.68272 2 3 tcp 1000 ------- 0 0.0 3.0 67 153
+ 2.68372 2 3 tcp 1000 ------- 0 0.0 3.0 68 154
r 2.68672 2 0 ack 40 ------- 0 3.0 0.0 56 142
+ 2.69168 2 0 ack 40 ------- 0 3.0 0.0 57 143
- 2.69168 2 0 ack 40 ------- 0 3.0 0.0 57 143
- 2.69272 2 3 tcp 1000 ------- 0 0.0 3.0 65 151
+ 2.69272 2 3 tcp 1000 ------- 0 0.0 3.0 69 155
r 2.69672 2 0 ack 40 ------- 0 3.0 0.0 57 143
+ 2.70168 2 0 ack 40 ------- 0 3.0 0.0 58 144
- 2.70168 2 0 ack 40 ------- 0 3.0 0.0 58 144
- 2.70272 2 3 tcp 1000 ------- 0 0.0 3.0 66 152
+ 2.70272 2 3 tcp 1000 ------- 0 0.0 3.0 70 156
r 2.70672 2 0 ack 40 ------- 0 3.0 0.0 58 144
+ 2.71168 2 0 ack 40 ------- 0 3.0 0.0 59 145
- 2.71168 2 0 ack 40 ------- 0 3.0 0.0 59 145
- 2.71272 2 3 tcp 1000 ------- 0 0.0 3.0 67 153
+ 2.71272 2 3 tcp 1000 ------- 0 0.0 3.0 71 157
r 2.71672 2 0 ack 40 ------- 0 3.0 0.0 59 145
+ 2.72168 2 0 ack 40 ------- 0 3.0 0.0 60 146
- 2.72168 2 0 ack 40 ------- 0 3.0 0.0 60 146
- 2.72272 2 3 tcp 1000 ------- 0 0.0 3.0 68 154
+ 2.72272 2 3 tcp 1000 ------- 0 0.0 3.0 72 158
r 2.72672 2 0 ack 40 ------- 0 3.0 0.0 60 146
- 2.73272 2 3 tcp 1000 ------- 0 0.0 3.0 69 155
+ 2.73272 2 3 tcp 1000 ------- 0 0.0 3.0 73 159
- 2.74272 2 3 tcp 1000 ------- 0 0.0 3.0 70 156
- 2.75272 2 3 tcp 1000 ------- 0 0.0 3.0 71 157
- 2.76272 2 3 tcp 1000 ------- 0 0.0 3.0 72 158
r 2.76272 2 3 tcp 1000 ------- 0 0.0 3.0 61 147
- 2.77272 2 3 tcp 1000 ------- 0 0.0 3.0 73 159
r 2.77272 2 3 tcp 1000 ------- 0 0.0 3.0 62 148
r 2.78272 2 3 tcp 1000 ------- 0 0.0 3.0 63 149
r 2.79272 2 3 tcp 1000 ------- 0 0.0 3.0 64 150
r 2.80272 2 3 tcp 1000 ------- 0 0.0 3.0 65 151
r 2.81272 2 3 tcp 1000 ------- 0 0.0 3.0 66 152
r 2.82272 2 3 tcp 1000 ------- 0 0.0 3.0 67 153
r 2.83272 2 3 tcp 1000 ------- 0 0.0 3.0 68 154
r 2.84272 2 3 tcp 1000 ------- 0 0.0 3.0 69 155
r 2.85272 2 3 tcp 1000 ------- 0 0.0 3.0 70 156
r 2.86272 2 3 tcp 1000 ------- 0 0.0 3.0 71 157
+ 2.86312 2 0 ack 40 ------- 0 3.0 0.0 61 160
- 2.86312 2 0 ack 40 ------- 0 3.0 0.0 61 160
r 2.86816 2 0 ack 40 ------- 0 3.0 0.0 61 160
r 2.87272 2 3 tcp 1000 ------- 0 0.0 3.0 72 158
+ 2.87312 2 0 ack 40 ------- 0 3.0 0.0 62 161
- 2.87312 2 0 ack 40 ------- 0 3.0 0.0 62 161
+ 2.87416 2 3 tcp 1000 ------- 0 0.0 3.0 74 171
- 2.87416 2 3 tcp 1000 ------- 0 0.0 3.0 74 171
r 2.87816 2 0 ack 40 ------- 0 3.0 0.0 62 161
r 2.88272 2 3 tcp 1000 ------- 0 0.0 3.0 73 159
+ 2.88312 2 0 ack 40 ------- 0 3.0 0.0 63 162
- 2.88312 2 0 ack 40 ------- 0 3.0 0.0 63 162
+ 2.88416 2 3 tcp 1000 ------- 0 0.0 3.0 75 173
- 2.88416 2 3 tcp 1000 ------- 0 0.0 3.0 75 173
r 2.88816 2 0 ack 40 ------- 0 3.0 0.0 63 162
+ 2.89312 2 0 ack 40 ------- 0 3.0 0.0 64 163
- 2.89312 2 0 ack 40 ------- 0 3.0 0.0 64 163
+ 2.89416 2 3 tcp 1000 ------- 0 0.0 3.0 76 175
- 2.89416 2 3 tcp 1000 ------- 0 0.0 3.0 76 175
r 2.89816 2 0 ack 40 ------- 0 3.0 0.0 64 163
+ 2.90312 2 0 ack 40 ------- 0 3.0 0.0 65 164
- 2.90312 2 0 ack 40 ------- 0 3.0 0.0 65 164
+ 2.90416 2 3 tcp 1000 ------- 0 0.0 3.0 77 176
- 2.90416 2 3 tcp 1000 ------- 0 0.0 3.0 77 176
r 2.90816 2 0 ack 40 ------- 0 3.0 0.0 65 164
+ 2.91312 2 0 ack 40 ------- 0 3.0 0.0 66 165
- 2.91312 2 0 ack 40 ------- 0 3.0 0.0 66 165
+ 2.91416 2 3 tcp 1000 ------- 0 0.0 3.0 78 177
- 2.91416 2 3 tcp 1000 ------- 0 0.0 3.0 78 177
r 2.91816 2 0 ack 40 ------- 0 3.0 0.0 66 165
+ 2.92312 2 0 ack 40 ------- 0 3.0 0.0 67 166
- 2.92312 2 0 ack 40 ------- 0 3.0 0.0 67 166
+ 2.92416 2 3 tcp 1000 ------- 0 0.0 3.0 79 178
- 2.92416 2 3 tcp 1000 ------- 0 0.0 3.0 79 178
r 2.92816 2 0 ack 40 ------- 0 3.0 0.0 67 166
+ 2.93312 2 0 ack 40 ------- 0 3.0 0.0 68 167
- 2.93312 2 0 ack 40 ------- 0 3.0 0.0 68 167
+ 2.93416 2 3 tcp 1000 ------- 0 0.0 3.0 80 179
- 2.93416 2 3 tcp 1000 ------- 0 0.0 3.0 80 179
r 2.93816 2 0 ack 40 ------- 0 3.0 0.0 68 167
+ 2.94312 2 0 ack 40 ------- 0 3.0 0.0 69 168
- 2.94312 2 0 ack 40 ------- 0 3.0 0.0 69 168
+ 2.94416 2 3 tcp 1000 ------- 0 0.0 3.0 81 180
- 2.94416 2 3 tcp 1000 ------- 0 0.0 3.0 81 180
r 2.94816 2 0 ack 40 ------- 0 3.0 0.0 69 168
+ 2.95312 2 0 ack 40 ------- 0 3.0 0.0 70 169
- 2.95312 2 0 ack 40 ------- 0 3.0 0.0 70 169
+ 2.95416 2 3 tcp 1000 ------- 0 0.0 3.0 82 181
- 2.95416 2 3 tcp 1000 ------- 0 0.0 3.0 82 181
+ 2.95516 2 3 tcp 1000 ------- 0 0.0 3.0 83 182
r 2.95816 2 0 ack 40 ------- 0 3.0 0.0 70 169
+ 2.96312 2 0 ack 40 ------- 0 3.0 0.0 71 170
- 2.96312 2 0 ack 40 ------- 0 3.0 0.0 71 170
- 2.96416 2 3 tcp 1000 ------- 0 0.0 3.0 83 182
+ 2.96416 2 3 tcp 1000 ------- 0 0.0 3.0 84 183
r 2.96816 2 0 ack 40 ------- 0 3.0 0.0 71 170
+ 2.97312 2 0 ack 40 ------- 0 3.0 0.0 72 172
- 2.97312 2 0 ack 40 ------- 0 3.0 0.0 72 172
- 2.97416 2 3 tcp 1000 ------- 0 0.0 3.0 84 183
+ 2.97416 2 3 tcp 1000 ------- 0 0.0 3.0 85 184
r 2.97816 2 0 ack 40 ------- 0 3.0 0.0 72 172
+ 2.98312 2 0 ack 40 ------- 0 3.0 0.0 73 174
- 2.98312 2 0 ack 40 ------- 0 3.0 0.0 73 174
- 2.98416 2 3 tcp 1000 ------- 0 0.0 3.0 85 184
+ 2.98416 2 3 tcp 1000 ------- 0 0.0 3.0 86 185
r 2.98416 2 3 tcp 1000 ------- 0 0.0 3.0 74 171
r 2.98816 2 0 ack 40 ------- 0 3.0 0.0 73 174
- 2.99416 2 3 tcp 1000 ------- 0 0.0 3.0 86 185
+ 2.99416 2 3 tcp 1000 ------- 0 0.0 3.0 87 187
r 2.99416 2 3 tcp 1000 ------- 0 0.0 3.0 75 173
- 3.00416 2 3 tcp 1000 ------- 0 0.0 3.0 87 187
r 3.00416 2 3 tcp 1000 ------- 0 0.0 3.0 76 175
r 3.01416 2 3 tcp 1000 ------- 0 0.0 3.0 77 176
r 3.02416 2 3 tcp 1000 ------- 0 0.0 3.0 78 177
r 3.03416 2 3 tcp 1000 ------- 0 0.0 3.0 79 178
r 3.04416 2 3 tcp 1000 ------- 0 0.0 3.0 80 179
r 3.05416 2 3 tcp 1000 ------- 0 0.0 3.0 81 180
r 3.06416 2 3 tcp 1000 ------- 0 0.0 3.0 82 181
r 3.07416 2 3 tcp 1000 ------- 0 0.0 3.0 83 182
r 3.08416 2 3 tcp 1000 ------- 0 0.0 3.0 84 183
+ 3.08456 2 0 ack 40 ------- 0 3.0 0.0 74 186
- 3.08456 2 0 ack 40 ------- 0 3.0 0.0 74 186
r 3.0896 2 0 ack 40 ------- 0 3.0 0.0 74 186
r 3.09416 2 3 tcp 1000 ------- 0 0.0 3.0 85 184
+ 3.09456 2 0 ack 40 ------- 0 3.0 0.0 75 188
- 3.09456 2 0 ack 40 ------- 0 3.0 0.0 75 188
+ 3.0956 2 3 tcp 1000 ------- 0 0.0 3.0 88 198
- 3.0956 2 3 tcp 1000 ------- 0 0.0 3.0 88 198
r 3.0996 2 0 ack 40 ------- 0 3.0 0.0 75 188
r 3.10416 2 3 tcp 1000 ------- 0 0.0 3.0 86 185
+ 3.10456 2 0 ack 40 ------- 0 3.0 0.0 76 189
- 3.10456 2 0 ack 40 ------- 0 3.0 0.0 76 189
+ 3.1056 2 3 tcp 1000 ------- 0 0.0 3.0 89 200
- 3.1056 2 3 tcp 1000 ------- 0 0.0 3.0 89 200
r 3.1096 2 0 ack 40 ------- 0 3.0 0.0 76 189
r 3.11416 2 3 tcp 1000 ------- 0 0.0 3.0 87 187
+ 3.11456 2 0 ack 40 ------- 0 3.0 0.0 77 190
- 3.11456 2 0 ack 40 ------- 0 3.0 0.0 77 190
+ 3.1156 2 3 tcp 1000 ------- 0 0.0 3.0 90 202
- 3.1156 2 3 tcp 1000 ------- 0 0.0 3.0 90 202
r 3.1196 2 0 ack 40 ------- 0 3.0 0.0 77 190
+ 3.12456 2 0 ack 40 ------- 0 3.0 0.0 78 191
- 3.12456 2 0 ack 40 ------- 0 3.0 0.0 78 191
+ 3.1256 2 3 tcp 1000 ------- 0 0.0 3.0 91 204
- 3.1256 2 3 tcp 1000 ------- 0 0.0 3.0 91 204
r 3.1296 2 0 ack 40 ------- 0 3.0 0.0 78 191
+ 3.13456 2 0 ack 40 ------- 0 3.0 0.0 79 192
- 3.13456 2 0 ack 40 ------- 0 3.0 0.0 79 192
+ 3.1356 2 3 tcp 1000 ------- 0 0.0 3.0 92 205
- 3.1356 2 3 tcp 1000 ------- 0 0.0 3.0 92 205
r 3.1396 2 0 ack 40 ------- 0 3.0 0.0 79 192
+ 3.14456 2 0 ack 40 ------- 0 3.0 0.0 80 193
- 3.14456 2 0 ack 40 ------- 0 3.0 0.0 80 193
+ 3.1456 2 3 tcp 1000 ------- 0 0.0 3.0 93 206
- 3.1456 2 3 tcp 1000 ------- 0 0.0 3.0 93 206
r 3.1496 2 0 ack 40 ------- 0 3.0 0.0 80 193
+ 3.15456 2 0 ack 40 ------- 0 3.0 0.0 81 194
- 3.15456 2 0 ack 40 ------- 0 3.0 0.0 81 194
+ 3.1556 2 3 tcp 1000 ------- 0 0.0 3.0 94 207
- 3.1556 2 3 tcp 1000 ------- 0 0.0 3.0 94 207
r 3.1596 2 0 ack 40 ------- 0 3.0 0.0 81 194
+ 3.16456 2 0 ack 40 ------- 0 3.0 0.0 82 195
- 3.16456 2 0 ack 40 ------- 0 3.0 0.0 82 195
+ 3.1656 2 3 tcp 1000 ------- 0 0.0 3.0 95 208
- 3.1656 2 3 tcp 1000 ------- 0 0.0 3.0 95 208
r 3.1696 2 0 ack 40 ------- 0 3.0 0.0 82 195
+ 3.17456 2 0 ack 40 ------- 0 3.0 0.0 83 196
- 3.17456 2 0 ack 40 ------- 0 3.0 0.0 83 196
+ 3.1756 2 3 tcp 1000 ------- 0 0.0 3.0 96 209
- 3.1756 2 3 tcp 1000 ------- 0 0.0 3.0 96 209
r 3.1796 2 0 ack 40 ------- 0 3.0 0.0 83 196
+ 3.18456 2 0 ack 40 ------- 0 3.0 0.0 84 197
- 3.18456 2 0 ack 40 ------- 0 3.0 0.0 84 197
+ 3.1856 2 3 tcp 1000 ------- 0 0.0 3.0 97 210
- 3.1856 2 3 tcp 1000 ------- 0 0.0 3.0 97 210
+ 3.1866 2 3 tcp 1000 ------- 0 0.0 3.0 98 211
r 3.1896 2 0 ack 40 ------- 0 3.0 0.0 84 197
+ 3.19456 2 0 ack 40 ------- 0 3.0 0.0 85 199
- 3.19456 2 0 ack 40 ------- 0 3.0 0.0 85 199
- 3.1956 2 3 tcp 1000 ------- 0 0.0 3.0 98 211
+ 3.1956 2 3 tcp 1000 ------- 0 0.0 3.0 99 212
r 3.1996 2 0 ack 40 ------- 0 3.0 0.0 85 199
+ 3.20456 2 0 ack 40 ------- 0 3.0 0.0 86 201
- 3.20456 2 0 ack 40 ------- 0 3.0 0.0 86 201
- 3.2056 2 3 tcp 1000 ------- 0 0.0 3.0 99 212
+ 3.2056 2 3 tcp 1000 ------- 0 0.0 3.0 100 213
r 3.2056 2 3 tcp 1000 ------- 0 0.0 3.0 88 198
r 3.2096 2 0 ack 40 ------- 0 3.0 0.0 86 201
+ 3.21456 2 0 ack 40 ------- 0 3.0 0.0 87 203
- 3.21456 2 0 ack 40 ------- 0 3.0 0.0 87 203
- 3.2156 2 3 tcp 1000 ------- 0 0.0 3.0 100 213
+ 3.2156 2 3 tcp 1000 ------- 0 0.0 3.0 101 215
r 3.2156 2 3 tcp 1000 ------- 0 0.0 3.0 89 200
r 3.2196 2 0 ack 40 ------- 0 3.0 0.0 87 203
- 3.2256 2 3 tcp 1000 ------- 0 0.0 3.0 101 215
+ 3.2256 2 3 tcp 1000 ------- 0 0.0 3.0 102 217
r 3.2256 2 3 tcp 1000 ------- 0 0.0 3.0 90 202
- 3.2356 2 3 tcp 1000 ------- 0 0.0 3.0 102 217
r 3.2356 2 3 tcp 1000 ------- 0 0.0 3.0 91 204
r 3.2456 2 3 tcp 1000 ------- 0 0.0 3.0 92 205
r 3.2556 2 3 tcp 1000 ------- 0 0.0 3.0 93 206
r 3.2656 2 3 tcp 1000 ------- 0 0.0 3.0 94 207
r 3.2756 2 3 tcp 1000 ------- 0 0.0 3.0 95 208
r 3.2856 2 3 tcp 1000 ------- 0 0.0 3.0 96 209
r 3.2956 2 3 tcp 1000 ------- 0 0.0 3.0 97 210
r 3.3056 2 3 tcp 1000 ------- 0 0.0 3.0 98 211
+ 3.306 2 0 ack 40 ------- 0 3.0 0.0 88 214
- 3.306 2 0 ack 40 ------- 0 3.0 0.0 88 214
r 3.31104 2 0 ack 40 ------- 0 3.0 0.0 88 214
r 3.3156 2 3 tcp 1000 ------- 0 0.0 3.0 99 212
+ 3.316 2 0 ack 40 ------- 0 3.0 0.0 89 216
- 3.316 2 0 ack 40 ------- 0 3.0 0.0 89 216
+ 3.31704 2 3 tcp 1000 ------- 0 0.0 3.0 103 227
- 3.31704 2 3 tcp 1000 ------- 0 0.0 3.0 103 227
r 3.32104 2 0 ack 40 ------- 0 3.0 0.0 89 216
r 3.3256 2 3 tcp 1000 ------- 0 0.0 3.0 100 213
+ 3.326 2 0 ack 40 ------- 0 3.0 0.0 90 218
- 3.326 2 0 ack 40 ------- 0 3.0 0.0 90 218
+ 3.32704 2 3 tcp 1000 ------- 0 0.0 3.0 104 229